                             OPE
                             OPE          NMOL  CASOP  ENMOLC A   SO
                 OPE        NMOLC        AS  OP EN  MO LC     AS  OP
                OPENM       OL CA        SO  PE NM  OL CA     SOP EN
                OP EN      MO   LC       AS  OP ENMOL  CASO   PENMOL
                OP  EN     MO   LC       AS  OP EN     MO     LC ASO
               OP   E  NMOL  C  AS       OP  EN MO     LC     AS  OP
               OP  E   NMO   LC AS        OPEN  MO     LCASOP EN   M
               O  PEN   MO  LCA  SO
            OPE   NMO   L   CAS    OP
        OPENMOL  CASOP     ENMOL   CASOPE
     OPENMOLCA   SOPENMOLCASOPEN   MOLCASOPE
    OPENMOLCAS   OP           EN   MOL    CAS
    OPENMOLCAS       OP  ENM        O     LCA
    OPENMOLCAS    OPEN  MOLCASO     P  E  NMO
    OPENMOLCAS     OP               E  N  MOL
    OPENMOLCA   SO           PENM   O  L  CAS    OPEN    MO    LCAS
    OPENMOLCA   SOP           ENM   O  L  CAS   OP  EN  MOLC  AS   O
    OPENMOLCA   SOPE           NM      O  LCA   S      OP  EN MO
    OPENMOLC                AS         O  PEN   M      OL  CA  SOPE
    OPENMO        LCASOPE  NMOL        C  ASO   P      ENMOLC     AS
    OPE     NMO      LCA  SO     P     E   NM   OL  CA SO  PE N   MO
          OPENMOLCA            SOPE   NMO        LCAS  O    P  ENMO
     OPENMOLCASOPENMOLCASOPENMOLCASOPENMOLCA
        OPENMOLCASOPENMOLCASOPENMOLCASOPE
            OPENMOLCASOPENMOLCASOPENM
               OPENMOLCASOPENMOLCA        version: v25.06
                   OPENMOLCASO
                       OPE                tag:

 OpenMolcas is free software; you can redistribute it and/or modify it
 under the terms of the GNU Lesser General Public License version 2.1.
 OpenMolcas is distributed in the hope that it will be useful, but it
 is provided "as is" and without any express or implied warranties.
 For more details see the full text of the license in the file
 LICENSE or in <http://www.gnu.org/licenses/>.

                 Copyright (C) The OpenMolcas Authors
           For the author list and the recommended citation,
                   consult the file CONTRIBUTORS.md

           *************************************************
           * pymolcas version py2.29                       *
           *   build c0481229b6f3f65ed2c83878be511d3d      *
           *   (after the EMIL interpreter by V. Veryazov) *
           *************************************************

configuration info
------------------
Host name: buildkitsandbox (Linux)
C Compiler ID: GNU
C flags: -std=gnu99
Fortran Compiler ID: GNU
Fortran flags: -cpp -fdefault-integer-8 -fmax-stack-var-size=1048576
Definitions: _MOLCAS_;_I8_;_LINUX_;_MOLCAS_MPP_;_SCALAPACK_;_GA_
Parallel: ON (GA=ON)


   --------------------------------------------------------------------------------
  |
  |              Project: CeO2_SI
  |       Submitted from: /home/esrf/sizhang1/Data/CeO2/XAS/Formal/Quadrupole/PT2SI
  |         Scratch area: /tmp/sizhang1/25925999/CeO2_SI
  |      Save outputs to: /home/esrf/sizhang1/Data/CeO2/XAS/Formal/Quadrupole/PT2SI
  |               Molcas: /opt/openmolcas
  |
  | Scratch area is empty
  |
  |       MOLCAS_DRIVER = /opt/openmolcas/pymolcas
  | MOLCAS_KEEP_WORKDIR = NO
  |       MOLCAS_NPROCS = 1
  |       MOLCAS_SOURCE = /opt/openmolcas
  |    MOLCAS_STRUCTURE = 0
  |
   --------------------------------------------------------------------------------

++ ---------   Input file   ---------

&SEWARD
  Symmetry = X Y Z
  Relativistic = R02O    * DKH2
  RICD    * RI Accerate
  AMFI    * Average M Field
  Finite    * Finite Nuclei
  BASLIB
    /home/esrf/sizhang1/Data/OpenMolcas/basis_library
  Basis Set
    Ce.ANO-RCC-VTZP
    Ce1           0.00000000     0.00000000     0.00000000    /angstrom
    End of Basis
  Basis Set
    O.ANO-RCC-VTZP
    O1            1.35280000     1.35280000     1.35280000    /angstrom
    End of Basis
  Basis set
Mg.EMB-AIMP.Pascual.0s.0s.ECP.MgO   /  INLINE
  4.000    0
      0    0
M1
   12
   344151.1700
   49413.57550
   10760.50800
   2849.497590
   872.4769320
   303.8848150
   109.5689970
   39.55493830
   12.91096380
   4.685792000
   1.833400000
   1.084900000

   .031575047700
   .040468796350
   .076223426000
   .132364756500
   .223980631500
   .363503941000
   .531840945000
   .484401123000
   .910411490000
  1.563187350000
   .623163230000
   .018879258300
M2
    0
COREREP
   1.0
PROJOP
    1
   10    2
  97.6581142      7.20532529
   1878.638200
   284.1134600
   64.18707000
   17.11882000
   25.86957000
   2.405580000
   .8294600000
   .9091800000
   .1014600000
   .3698000000E-01
   .018908808000  -.005220389990
   .130555433000  -.036044063600
   .453961273000  -.125330739000
   .526658627000  -.145401203000
  -.006366326590  -.091012608300
   .041698831400   .596123896000
   .035594566600   .508857706000
  -.049692457100   .003535396150
   .001421884340   .005778377630
  -.000765323055  -.006809260440
    4    1
  4.24781545
   49.11481000
   11.09001000
   3.139020000
   .8969100000
   .042311631200
   .230671413000
   .518471734000
   .431267241000
Spectral Representation Operator
Core primitive basis
Exchange
End of Spectral Representation Operator
    PseudoCharge
    Ce2-1      2.70560000     2.70560000     0.00000000    /angstrom
    Ce2-2      2.70560000     0.00000000     2.70560000    /angstrom
    Ce2-3      0.00000000     2.70560000     2.70560000    /angstrom
    End of Basis
  Basis Set
    O.EMB-AIMP.Pascual.0s.0s.ECP.MgO
    PseudoCharge
    O2-1      1.35280000     1.35280000     4.05840000    /angstrom
    O2-2      1.35280000     4.05840000     1.35280000    /angstrom
    O2-3      4.05840000     1.35280000     1.35280000    /angstrom
    End of Basis
  XFIELD
  2584 angstrom
        0.0000    0.0000    5.4112   4.00000000
        2.7056    2.7056    5.4112   4.00000000
        0.0000    5.4112    0.0000   4.00000000
        2.7056    5.4112    2.7056   4.00000000
        0.0000    5.4112    5.4112   4.00000000
        5.4112    0.0000    0.0000   4.00000000
        5.4112    2.7056    2.7056   4.00000000
        5.4112    0.0000    5.4112   4.00000000
        5.4112    5.4112    0.0000   4.00000000
        5.4112    5.4112    5.4112   4.00000000
        0.0000    2.7056    8.1168   4.00000000
        2.7056    0.0000    8.1168   4.00000000
        2.7056    5.4112    8.1168   4.00000000
        5.4112    2.7056    8.1168   4.00000000
        0.0000    8.1168    2.7056   4.00000000
        2.7056    8.1168    0.0000   4.00000000
        2.7056    8.1168    5.4112   4.00000000
        5.4112    8.1168    2.7056   4.00000000
        8.1168    0.0000    2.7056   4.00000000
        8.1168    2.7056    0.0000   4.00000000
        8.1168    2.7056    5.4112   4.00000000
        8.1168    5.4112    2.7056   4.00000000
        0.0000    0.0000   10.8224   3.99792108
        0.0000    2.7056   13.5280   3.78975891
        2.7056    0.0000   13.5280   3.78975927
        2.7056    2.7056   10.8224   4.01319285
        0.0000    5.4112   10.8224   3.98641725
        2.7056    5.4112   13.5280   3.66217579
        5.4112    0.0000   10.8224   3.98641708
        5.4112    2.7056   13.5280   3.66217584
        5.4112    5.4112   10.8224   3.78988338
        0.0000    0.0000   16.2336   3.93149965
        0.0000    2.7056   18.9392   3.98297989
        2.7056    0.0000   18.9392   3.98297991
        2.7056    2.7056   16.2336   3.87875123
        0.0000    0.0000   21.6448   4.04121963
        2.7056    2.7056   21.6448   4.04617136
        0.0000    5.4112   16.2336   3.89620610
        2.7056    5.4112   18.9392   3.98372455
        0.0000    5.4112   21.6448   4.05218552
        5.4112    0.0000   16.2336   3.89620616
        5.4112    2.7056   18.9392   3.98372457
        5.4112    0.0000   21.6448   4.05218553
        5.4112    5.4112   16.2336   3.88887002
        5.4112    5.4112   21.6448   4.06943039
        0.0000    2.7056   24.3504   4.09133827
        2.7056    0.0000   24.3504   4.09133827
        0.0000    0.0000   27.0560   4.12066021
        0.0000    2.7056   29.7616   4.16656617
        2.7056    0.0000   29.7616   4.16656617
        2.7056    2.7056   27.0560   4.14281826
        2.7056    5.4112   24.3504   4.11230404
        0.0000    5.4112   27.0560   4.14540256
        2.7056    5.4112   29.7616   4.19516157
        5.4112    2.7056   24.3504   4.11230404
        5.4112    0.0000   27.0560   4.14540256
        5.4112    2.7056   29.7616   4.19516157
        5.4112    5.4112   27.0560   4.17201972
        0.0000   10.8224    0.0000   3.99792109
        0.0000   13.5280    2.7056   3.78975899
        2.7056   10.8224    2.7056   4.01319286
        2.7056   13.5280    0.0000   3.78975885
        0.0000   10.8224    5.4112   3.98641727
        2.7056   13.5280    5.4112   3.66217582
        5.4112   10.8224    0.0000   3.98641718
        5.4112   13.5280    2.7056   3.66217586
        5.4112   10.8224    5.4112   3.78988350
        0.0000    8.1168    8.1168   3.99880309
        0.0000    8.1168   13.5280   3.80225237
        2.7056    8.1168   10.8224   3.79138531
        0.0000   13.5280    8.1168   3.80225236
        2.7056   10.8224    8.1168   3.79138534
        0.0000   10.8224   10.8224   3.81582723
        0.0000   13.5280   13.5280   3.95467406
        2.7056   10.8224   13.5280   3.87219276
        2.7056   13.5280   10.8224   3.87219276
        5.4112    8.1168    8.1168   3.86004271
        5.4112    8.1168   13.5280   3.80914692
        5.4112   13.5280    8.1168   3.80914693
        5.4112   10.8224   10.8224   3.75310189
        5.4112   13.5280   13.5280   3.96483515
        0.0000    8.1168   18.9392   4.00564612
        2.7056    8.1168   16.2336   3.91209741
        2.7056    8.1168   21.6448   4.07640471
        0.0000   10.8224   16.2336   3.96720954
        0.0000   13.5280   18.9392   4.07485363
        2.7056   10.8224   18.9392   4.04210153
        2.7056   13.5280   16.2336   4.02137262
        0.0000   10.8224   21.6448   4.09467222
        2.7056   13.5280   21.6448   4.13473934
        5.4112    8.1168   18.9392   4.02084177
        5.4112   10.8224   16.2336   3.98079301
        5.4112   13.5280   18.9392   4.09751827
        5.4112   10.8224   21.6448   4.11820390
        0.0000    8.1168   24.3504   4.12039271
        0.0000    8.1168   29.7616   4.19886793
        2.7056    8.1168   27.0560   4.17487769
        0.0000   13.5280   24.3504   4.16755207
        2.7056   10.8224   24.3504   4.15344562
        0.0000   10.8224   27.0560   4.18274527
        0.0000   13.5280   29.7616   4.23961063
        2.7056   10.8224   29.7616   4.23271646
        2.7056   13.5280   27.0560   4.21934268
        5.4112    8.1168   24.3504   4.14520682
        5.4112    8.1168   29.7616   4.22888676
        5.4112   13.5280   24.3504   4.19576512
        5.4112   10.8224   27.0560   4.21173992
        5.4112   13.5280   29.7616   4.27119397
        0.0000   16.2336    0.0000   3.93149957
        0.0000   18.9392    2.7056   3.98297987
        2.7056   16.2336    2.7056   3.87875120
        2.7056   18.9392    0.0000   3.98297987
        0.0000   16.2336    5.4112   3.89620610
        2.7056   18.9392    5.4112   3.98372455
        0.0000   21.6448    0.0000   4.04121961
        2.7056   21.6448    2.7056   4.04617135
        0.0000   21.6448    5.4112   4.05218551
        5.4112   16.2336    0.0000   3.89620610
        5.4112   18.9392    2.7056   3.98372455
        5.4112   16.2336    5.4112   3.88887002
        5.4112   21.6448    0.0000   4.05218551
        5.4112   21.6448    5.4112   4.06943038
        0.0000   18.9392    8.1168   4.00564612
        2.7056   16.2336    8.1168   3.91209741
        0.0000   16.2336   10.8224   3.96720954
        0.0000   18.9392   13.5280   4.07485363
        2.7056   16.2336   13.5280   4.02137262
        2.7056   18.9392   10.8224   4.04210153
        2.7056   21.6448    8.1168   4.07640471
        0.0000   21.6448   10.8224   4.09467222
        2.7056   21.6448   13.5280   4.13473933
        5.4112   18.9392    8.1168   4.02084177
        5.4112   16.2336   10.8224   3.98079301
        5.4112   18.9392   13.5280   4.09751827
        5.4112   21.6448   10.8224   4.11820390
        0.0000   16.2336   16.2336   4.06750569
        0.0000   18.9392   18.9392   4.15237700
        2.7056   16.2336   18.9392   4.12371899
        2.7056   18.9392   16.2336   4.12371899
        0.0000   16.2336   21.6448   4.15645813
        2.7056   18.9392   21.6448   4.20208114
        0.0000   21.6448   16.2336   4.15645813
        2.7056   21.6448   18.9392   4.20208114
        0.0000   21.6448   21.6448   4.22111927
        5.4112   16.2336   16.2336   4.08972088
        5.4112   18.9392   18.9392   4.17991816
        5.4112   16.2336   21.6448   4.18417700
        5.4112   21.6448   16.2336   4.18417700
        5.4112   21.6448   21.6448   4.25180526
        0.0000   18.9392   24.3504   4.22351329
        2.7056   16.2336   24.3504   4.20834953
        0.0000   16.2336   27.0560   4.23014417
        0.0000   18.9392   29.7616   4.28603239
        2.7056   16.2336   29.7616   4.27770007
        2.7056   18.9392   27.0560   4.27085807
        2.7056   21.6448   24.3504   4.26705948
        0.0000   21.6448   27.0560   4.28184497
        2.7056   21.6448   29.7616   4.32645076
        5.4112   18.9392   24.3504   4.25430426
        5.4112   16.2336   27.0560   4.26124142
        5.4112   18.9392   29.7616   4.31901436
        5.4112   21.6448   27.0560   4.31462985
        0.0000   24.3504    2.7056   4.09133826
        2.7056   24.3504    0.0000   4.09133826
        2.7056   24.3504    5.4112   4.11230403
        0.0000   27.0560    0.0000   4.12066021
        0.0000   29.7616    2.7056   4.16656617
        2.7056   27.0560    2.7056   4.14281825
        2.7056   29.7616    0.0000   4.16656617
        0.0000   27.0560    5.4112   4.14540255
        2.7056   29.7616    5.4112   4.19516156
        5.4112   24.3504    2.7056   4.11230403
        5.4112   27.0560    0.0000   4.14540255
        5.4112   29.7616    2.7056   4.19516156
        5.4112   27.0560    5.4112   4.17201972
        0.0000   24.3504    8.1168   4.12039271
        0.0000   24.3504   13.5280   4.16755207
        2.7056   24.3504   10.8224   4.15344561
        0.0000   29.7616    8.1168   4.19886793
        2.7056   27.0560    8.1168   4.17487769
        0.0000   27.0560   10.8224   4.18274527
        0.0000   29.7616   13.5280   4.23961063
        2.7056   27.0560   13.5280   4.21934268
        2.7056   29.7616   10.8224   4.23271646
        5.4112   24.3504    8.1168   4.14520682
        5.4112   24.3504   13.5280   4.19576512
        5.4112   29.7616    8.1168   4.22888676
        5.4112   27.0560   10.8224   4.21173991
        5.4112   29.7616   13.5280   4.27119397
        0.0000   24.3504   18.9392   4.22351329
        2.7056   24.3504   16.2336   4.20834953
        2.7056   24.3504   21.6448   4.26705948
        0.0000   27.0560   16.2336   4.23014417
        0.0000   29.7616   18.9392   4.28603239
        2.7056   27.0560   18.9392   4.27085807
        2.7056   29.7616   16.2336   4.27770007
        0.0000   27.0560   21.6448   4.28184497
        2.7056   29.7616   21.6448   4.32645076
        5.4112   24.3504   18.9392   4.25430426
        5.4112   27.0560   16.2336   4.26124142
        5.4112   29.7616   18.9392   4.31901436
        5.4112   27.0560   21.6448   4.31462985
        0.0000   24.3504   24.3504   4.28035695
        0.0000   24.3504   29.7616   4.33465395
        2.7056   24.3504   27.0560   4.32402228
        0.0000   29.7616   24.3504   4.33465395
        2.7056   27.0560   24.3504   4.32402228
        0.0000   27.0560   27.0560   4.33368207
        0.0000   29.7616   29.7616   4.38314360
        2.7056   27.0560   29.7616   4.37590114
        2.7056   29.7616   27.0560   4.37590114
        5.4112   24.3504   24.3504   4.31307449
        5.4112   24.3504   29.7616   4.36879263
        5.4112   29.7616   24.3504   4.36879263
        5.4112   27.0560   27.0560   4.36777622
        5.4112   29.7616   29.7616   4.41820373
       10.8224    0.0000    0.0000   3.99792107
       10.8224    2.7056    2.7056   4.01319287
       13.5280    0.0000    2.7056   3.78975922
       13.5280    2.7056    0.0000   3.78975871
       10.8224    0.0000    5.4112   3.98641710
       13.5280    2.7056    5.4112   3.66217582
       10.8224    5.4112    0.0000   3.98641720
       13.5280    5.4112    2.7056   3.66217582
       10.8224    5.4112    5.4112   3.78988329
        8.1168    0.0000    8.1168   3.99880305
        8.1168    0.0000   13.5280   3.80225249
        8.1168    2.7056   10.8224   3.79138522
        8.1168    5.4112    8.1168   3.86004269
        8.1168    5.4112   13.5280   3.80914692
       10.8224    2.7056    8.1168   3.79138518
       13.5280    0.0000    8.1168   3.80225250
       10.8224    0.0000   10.8224   3.81582725
       10.8224    2.7056   13.5280   3.87219277
       13.5280    0.0000   13.5280   3.95467408
       13.5280    2.7056   10.8224   3.87219276
       13.5280    5.4112    8.1168   3.80914691
       10.8224    5.4112   10.8224   3.75310188
       13.5280    5.4112   13.5280   3.96483515
        8.1168    0.0000   18.9392   4.00564614
        8.1168    2.7056   16.2336   3.91209743
        8.1168    2.7056   21.6448   4.07640472
        8.1168    5.4112   18.9392   4.02084178
       10.8224    0.0000   16.2336   3.96720956
       10.8224    2.7056   18.9392   4.04210154
       13.5280    0.0000   18.9392   4.07485364
       13.5280    2.7056   16.2336   4.02137263
       10.8224    0.0000   21.6448   4.09467223
       13.5280    2.7056   21.6448   4.13473934
       10.8224    5.4112   16.2336   3.98079301
       13.5280    5.4112   18.9392   4.09751827
       10.8224    5.4112   21.6448   4.11820390
        8.1168    0.0000   24.3504   4.12039272
        8.1168    0.0000   29.7616   4.19886793
        8.1168    2.7056   27.0560   4.17487769
        8.1168    5.4112   24.3504   4.14520683
        8.1168    5.4112   29.7616   4.22888676
       10.8224    2.7056   24.3504   4.15344562
       13.5280    0.0000   24.3504   4.16755207
       10.8224    0.0000   27.0560   4.18274528
       10.8224    2.7056   29.7616   4.23271646
       13.5280    0.0000   29.7616   4.23961063
       13.5280    2.7056   27.0560   4.21934268
       13.5280    5.4112   24.3504   4.19576512
       10.8224    5.4112   27.0560   4.21173992
       13.5280    5.4112   29.7616   4.27119397
        8.1168    8.1168    0.0000   3.99880305
        8.1168    8.1168    5.4112   3.86004272
        8.1168   10.8224    2.7056   3.79138532
        8.1168   13.5280    0.0000   3.80225240
        8.1168   13.5280    5.4112   3.80914694
       10.8224    8.1168    2.7056   3.79138525
       13.5280    8.1168    0.0000   3.80225241
       13.5280    8.1168    5.4112   3.80914691
       10.8224   10.8224    0.0000   3.81582729
       10.8224   13.5280    2.7056   3.87219277
       13.5280   10.8224    2.7056   3.87219277
       13.5280   13.5280    0.0000   3.95467407
       10.8224   10.8224    5.4112   3.75310188
       13.5280   13.5280    5.4112   3.96483515
        8.1168    8.1168   10.8224   3.72457929
        8.1168   10.8224    8.1168   3.72457929
        8.1168   10.8224   13.5280   3.92637526
        8.1168   13.5280   10.8224   3.92637526
       10.8224    8.1168    8.1168   3.72457929
       10.8224    8.1168   13.5280   3.92637526
       13.5280    8.1168   10.8224   3.92637526
       10.8224   13.5280    8.1168   3.92637526
       13.5280   10.8224    8.1168   3.92637526
       10.8224   10.8224   10.8224   3.90465810
       10.8224   13.5280   13.5280   4.04022910
       13.5280   10.8224   13.5280   4.04022910
       13.5280   13.5280   10.8224   4.04022910
        8.1168    8.1168   16.2336   3.96440436
        8.1168    8.1168   21.6448   4.11193008
        8.1168   10.8224   18.9392   4.08127640
        8.1168   13.5280   16.2336   4.06237949
        8.1168   13.5280   21.6448   4.17097863
       10.8224    8.1168   18.9392   4.08127640
       13.5280    8.1168   16.2336   4.06237949
       13.5280    8.1168   21.6448   4.17097863
       10.8224   10.8224   16.2336   4.05175896
       10.8224   13.5280   18.9392   4.14928239
       13.5280   10.8224   18.9392   4.14928239
       13.5280   13.5280   16.2336   4.13632097
       10.8224   10.8224   21.6448   4.16606488
       13.5280   13.5280   21.6448   4.22451253
        8.1168    8.1168   27.0560   4.20898262
        8.1168   10.8224   24.3504   4.18850335
        8.1168   10.8224   29.7616   4.26759722
        8.1168   13.5280   27.0560   4.25455935
       10.8224    8.1168   24.3504   4.18850335
       10.8224    8.1168   29.7616   4.26759722
       13.5280    8.1168   27.0560   4.25455935
       10.8224   13.5280   24.3504   4.23812455
       13.5280   10.8224   24.3504   4.23812455
       10.8224   10.8224   27.0560   4.25215308
       10.8224   13.5280   29.7616   4.31013458
       13.5280   10.8224   29.7616   4.31013458
       13.5280   13.5280   27.0560   4.29909838
        8.1168   16.2336    2.7056   3.91209742
        8.1168   18.9392    0.0000   4.00564612
        8.1168   18.9392    5.4112   4.02084177
        8.1168   21.6448    2.7056   4.07640471
       10.8224   16.2336    0.0000   3.96720955
       10.8224   18.9392    2.7056   4.04210153
       13.5280   16.2336    2.7056   4.02137262
       13.5280   18.9392    0.0000   4.07485363
       10.8224   16.2336    5.4112   3.98079301
       13.5280   18.9392    5.4112   4.09751827
       10.8224   21.6448    0.0000   4.09467222
       13.5280   21.6448    2.7056   4.13473933
       10.8224   21.6448    5.4112   4.11820390
        8.1168   16.2336    8.1168   3.96440436
        8.1168   16.2336   13.5280   4.06237949
        8.1168   18.9392   10.8224   4.08127640
        8.1168   21.6448    8.1168   4.11193008
        8.1168   21.6448   13.5280   4.17097863
       10.8224   18.9392    8.1168   4.08127640
       13.5280   16.2336    8.1168   4.06237949
       10.8224   16.2336   10.8224   4.05175896
       10.8224   18.9392   13.5280   4.14928239
       13.5280   16.2336   13.5280   4.13632097
       13.5280   18.9392   10.8224   4.14928239
       13.5280   21.6448    8.1168   4.17097862
       10.8224   21.6448   10.8224   4.16606488
       13.5280   21.6448   13.5280   4.22451253
        8.1168   16.2336   18.9392   4.16070679
        8.1168   18.9392   16.2336   4.16070679
        8.1168   18.9392   21.6448   4.23798537
        8.1168   21.6448   18.9392   4.23798537
       10.8224   16.2336   16.2336   4.14299296
       10.8224   18.9392   18.9392   4.22446782
       13.5280   16.2336   18.9392   4.21668910
       13.5280   18.9392   16.2336   4.21668910
       10.8224   16.2336   21.6448   4.22811885
       13.5280   18.9392   21.6448   4.28543095
       10.8224   21.6448   16.2336   4.22811885
       13.5280   21.6448   18.9392   4.28543095
       10.8224   21.6448   21.6448   4.29257815
        8.1168   16.2336   24.3504   4.24397786
        8.1168   16.2336   29.7616   4.31327911
        8.1168   18.9392   27.0560   4.30657390
        8.1168   21.6448   24.3504   4.30287074
        8.1168   21.6448   29.7616   4.36245809
       10.8224   18.9392   24.3504   4.29481615
       13.5280   16.2336   24.3504   4.29033055
       10.8224   16.2336   27.0560   4.30106478
       10.8224   18.9392   29.7616   4.35764138
       13.5280   16.2336   29.7616   4.35502533
       13.5280   18.9392   27.0560   4.34920831
       13.5280   21.6448   24.3504   4.34602497
       10.8224   21.6448   27.0560   4.35357269
       13.5280   21.6448   29.7616   4.40309364
        8.1168   24.3504    0.0000   4.12039271
        8.1168   24.3504    5.4112   4.14520682
        8.1168   27.0560    2.7056   4.17487769
        8.1168   29.7616    0.0000   4.19886793
        8.1168   29.7616    5.4112   4.22888676
       10.8224   24.3504    2.7056   4.15344561
       13.5280   24.3504    0.0000   4.16755207
       13.5280   24.3504    5.4112   4.19576512
       10.8224   27.0560    0.0000   4.18274527
       10.8224   29.7616    2.7056   4.23271646
       13.5280   27.0560    2.7056   4.21934268
       13.5280   29.7616    0.0000   4.23961063
       10.8224   27.0560    5.4112   4.21173991
       13.5280   29.7616    5.4112   4.27119396
        8.1168   24.3504   10.8224   4.18850335
        8.1168   27.0560    8.1168   4.20898262
        8.1168   27.0560   13.5280   4.25455935
        8.1168   29.7616   10.8224   4.26759721
       10.8224   24.3504    8.1168   4.18850335
       10.8224   24.3504   13.5280   4.23812455
       13.5280   24.3504   10.8224   4.23812455
       10.8224   29.7616    8.1168   4.26759722
       13.5280   27.0560    8.1168   4.25455935
       10.8224   27.0560   10.8224   4.25215308
       10.8224   29.7616   13.5280   4.31013458
       13.5280   27.0560   13.5280   4.29909838
       13.5280   29.7616   10.8224   4.31013458
        8.1168   24.3504   16.2336   4.24397786
        8.1168   24.3504   21.6448   4.30287074
        8.1168   27.0560   18.9392   4.30657390
        8.1168   29.7616   16.2336   4.31327911
        8.1168   29.7616   21.6448   4.36245809
       10.8224   24.3504   18.9392   4.29481615
       13.5280   24.3504   16.2336   4.29033055
       13.5280   24.3504   21.6448   4.34602497
       10.8224   27.0560   16.2336   4.30106478
       10.8224   29.7616   18.9392   4.35764138
       13.5280   27.0560   18.9392   4.34920832
       13.5280   29.7616   16.2336   4.35502533
       10.8224   27.0560   21.6448   4.35357269
       13.5280   29.7616   21.6448   4.40309364
        8.1168   24.3504   27.0560   4.36005728
        8.1168   27.0560   24.3504   4.36005728
        8.1168   27.0560   29.7616   4.41223638
        8.1168   29.7616   27.0560   4.41223638
       10.8224   24.3504   24.3504   4.35213533
       10.8224   24.3504   29.7616   4.40701091
       13.5280   24.3504   27.0560   4.40095358
       10.8224   29.7616   24.3504   4.40701091
       13.5280   27.0560   24.3504   4.40095358
       10.8224   27.0560   27.0560   4.40605009
       10.8224   29.7616   29.7616   4.45612555
       13.5280   27.0560   29.7616   4.45190245
       13.5280   29.7616   27.0560   4.45190245
       16.2336    0.0000    0.0000   3.93149970
       16.2336    2.7056    2.7056   3.87875122
       18.9392    0.0000    2.7056   3.98297992
       18.9392    2.7056    0.0000   3.98297990
       16.2336    0.0000    5.4112   3.89620615
       18.9392    2.7056    5.4112   3.98372457
       16.2336    5.4112    0.0000   3.89620610
       18.9392    5.4112    2.7056   3.98372456
       16.2336    5.4112    5.4112   3.88887002
       21.6448    0.0000    0.0000   4.04121964
       21.6448    2.7056    2.7056   4.04617137
       21.6448    0.0000    5.4112   4.05218554
       21.6448    5.4112    0.0000   4.05218552
       21.6448    5.4112    5.4112   4.06943039
       16.2336    2.7056    8.1168   3.91209743
       18.9392    0.0000    8.1168   4.00564614
       16.2336    0.0000   10.8224   3.96720956
       16.2336    2.7056   13.5280   4.02137263
       18.9392    0.0000   13.5280   4.07485364
       18.9392    2.7056   10.8224   4.04210154
       18.9392    5.4112    8.1168   4.02084178
       16.2336    5.4112   10.8224   3.98079301
       18.9392    5.4112   13.5280   4.09751827
       21.6448    2.7056    8.1168   4.07640472
       21.6448    0.0000   10.8224   4.09467223
       21.6448    2.7056   13.5280   4.13473934
       21.6448    5.4112   10.8224   4.11820390
       16.2336    0.0000   16.2336   4.06750569
       16.2336    2.7056   18.9392   4.12371899
       18.9392    0.0000   18.9392   4.15237700
       18.9392    2.7056   16.2336   4.12371899
       16.2336    0.0000   21.6448   4.15645814
       18.9392    2.7056   21.6448   4.20208114
       16.2336    5.4112   16.2336   4.08972088
       18.9392    5.4112   18.9392   4.17991816
       16.2336    5.4112   21.6448   4.18417700
       21.6448    0.0000   16.2336   4.15645814
       21.6448    2.7056   18.9392   4.20208115
       21.6448    0.0000   21.6448   4.22111927
       21.6448    5.4112   16.2336   4.18417700
       21.6448    5.4112   21.6448   4.25180526
       16.2336    2.7056   24.3504   4.20834953
       18.9392    0.0000   24.3504   4.22351330
       16.2336    0.0000   27.0560   4.23014418
       16.2336    2.7056   29.7616   4.27770007
       18.9392    0.0000   29.7616   4.28603239
       18.9392    2.7056   27.0560   4.27085807
       18.9392    5.4112   24.3504   4.25430426
       16.2336    5.4112   27.0560   4.26124142
       18.9392    5.4112   29.7616   4.31901436
       21.6448    2.7056   24.3504   4.26705948
       21.6448    0.0000   27.0560   4.28184497
       21.6448    2.7056   29.7616   4.32645076
       21.6448    5.4112   27.0560   4.31462985
       16.2336    8.1168    2.7056   3.91209741
       18.9392    8.1168    0.0000   4.00564612
       18.9392    8.1168    5.4112   4.02084177
       16.2336   10.8224    0.0000   3.96720955
       16.2336   13.5280    2.7056   4.02137262
       18.9392   10.8224    2.7056   4.04210153
       18.9392   13.5280    0.0000   4.07485363
       16.2336   10.8224    5.4112   3.98079301
       18.9392   13.5280    5.4112   4.09751827
       21.6448    8.1168    2.7056   4.07640471
       21.6448   10.8224    0.0000   4.09467222
       21.6448   13.5280    2.7056   4.13473933
       21.6448   10.8224    5.4112   4.11820390
       16.2336    8.1168    8.1168   3.96440436
       16.2336    8.1168   13.5280   4.06237949
       18.9392    8.1168   10.8224   4.08127640
       16.2336   13.5280    8.1168   4.06237949
       18.9392   10.8224    8.1168   4.08127640
       16.2336   10.8224   10.8224   4.05175896
       16.2336   13.5280   13.5280   4.13632097
       18.9392   10.8224   13.5280   4.14928239
       18.9392   13.5280   10.8224   4.14928239
       21.6448    8.1168    8.1168   4.11193008
       21.6448    8.1168   13.5280   4.17097863
       21.6448   13.5280    8.1168   4.17097863
       21.6448   10.8224   10.8224   4.16606488
       21.6448   13.5280   13.5280   4.22451253
       16.2336    8.1168   18.9392   4.16070679
       18.9392    8.1168   16.2336   4.16070679
       18.9392    8.1168   21.6448   4.23798537
       16.2336   10.8224   16.2336   4.14299296
       16.2336   13.5280   18.9392   4.21668910
       18.9392   10.8224   18.9392   4.22446782
       18.9392   13.5280   16.2336   4.21668910
       16.2336   10.8224   21.6448   4.22811885
       18.9392   13.5280   21.6448   4.28543095
       21.6448    8.1168   18.9392   4.23798537
       21.6448   10.8224   16.2336   4.22811885
       21.6448   13.5280   18.9392   4.28543095
       21.6448   10.8224   21.6448   4.29257815
       16.2336    8.1168   24.3504   4.24397786
       16.2336    8.1168   29.7616   4.31327911
       18.9392    8.1168   27.0560   4.30657390
       16.2336   13.5280   24.3504   4.29033055
       18.9392   10.8224   24.3504   4.29481615
       16.2336   10.8224   27.0560   4.30106477
       16.2336   13.5280   29.7616   4.35502533
       18.9392   10.8224   29.7616   4.35764138
       18.9392   13.5280   27.0560   4.34920831
       21.6448    8.1168   24.3504   4.30287074
       21.6448    8.1168   29.7616   4.36245809
       21.6448   13.5280   24.3504   4.34602497
       21.6448   10.8224   27.0560   4.35357269
       21.6448   13.5280   29.7616   4.40309364
       16.2336   16.2336    0.0000   4.06750569
       16.2336   18.9392    2.7056   4.12371899
       18.9392   16.2336    2.7056   4.12371899
       18.9392   18.9392    0.0000   4.15237699
       16.2336   16.2336    5.4112   4.08972088
       18.9392   18.9392    5.4112   4.17991816
       16.2336   21.6448    0.0000   4.15645813
       18.9392   21.6448    2.7056   4.20208114
       16.2336   21.6448    5.4112   4.18417699
       21.6448   16.2336    0.0000   4.15645813
       21.6448   18.9392    2.7056   4.20208114
       21.6448   16.2336    5.4112   4.18417699
       21.6448   21.6448    0.0000   4.22111927
       21.6448   21.6448    5.4112   4.25180526
       16.2336   18.9392    8.1168   4.16070679
       18.9392   16.2336    8.1168   4.16070679
       16.2336   16.2336   10.8224   4.14299296
       16.2336   18.9392   13.5280   4.21668910
       18.9392   16.2336   13.5280   4.21668910
       18.9392   18.9392   10.8224   4.22446782
       18.9392   21.6448    8.1168   4.23798537
       16.2336   21.6448   10.8224   4.22811885
       18.9392   21.6448   13.5280   4.28543095
       21.6448   18.9392    8.1168   4.23798537
       21.6448   16.2336   10.8224   4.22811885
       21.6448   18.9392   13.5280   4.28543095
       21.6448   21.6448   10.8224   4.29257815
       16.2336   16.2336   16.2336   4.21249174
       16.2336   18.9392   18.9392   4.28016711
       18.9392   16.2336   18.9392   4.28016711
       18.9392   18.9392   16.2336   4.28016711
       16.2336   16.2336   21.6448   4.28285882
       18.9392   18.9392   21.6448   4.33908369
       16.2336   21.6448   16.2336   4.28285881
       18.9392   21.6448   18.9392   4.33908369
       16.2336   21.6448   21.6448   4.34090358
       21.6448   16.2336   16.2336   4.28285881
       21.6448   18.9392   18.9392   4.33908369
       21.6448   16.2336   21.6448   4.34090358
       21.6448   21.6448   16.2336   4.34090359
       21.6448   21.6448   21.6448   4.39260552
       16.2336   18.9392   24.3504   4.34267509
       18.9392   16.2336   24.3504   4.34267509
       16.2336   16.2336   27.0560   4.34766407
       16.2336   18.9392   29.7616   4.40098594
       18.9392   16.2336   29.7616   4.40098594
       18.9392   18.9392   27.0560   4.39638679
       18.9392   21.6448   24.3504   4.39389821
       16.2336   21.6448   27.0560   4.39757338
       18.9392   21.6448   29.7616   4.44711233
       21.6448   18.9392   24.3504   4.39389821
       21.6448   16.2336   27.0560   4.39757338
       21.6448   18.9392   29.7616   4.44711233
       21.6448   21.6448   27.0560   4.44445246
       16.2336   24.3504    2.7056   4.20834953
       18.9392   24.3504    0.0000   4.22351329
       18.9392   24.3504    5.4112   4.25430426
       16.2336   27.0560    0.0000   4.23014417
       16.2336   29.7616    2.7056   4.27770007
       18.9392   27.0560    2.7056   4.27085807
       18.9392   29.7616    0.0000   4.28603238
       16.2336   27.0560    5.4112   4.26124142
       18.9392   29.7616    5.4112   4.31901436
       21.6448   24.3504    2.7056   4.26705948
       21.6448   27.0560    0.0000   4.28184497
       21.6448   29.7616    2.7056   4.32645076
       21.6448   27.0560    5.4112   4.31462985
       16.2336   24.3504    8.1168   4.24397786
       16.2336   24.3504   13.5280   4.29033055
       18.9392   24.3504   10.8224   4.29481614
       16.2336   29.7616    8.1168   4.31327911
       18.9392   27.0560    8.1168   4.30657390
       16.2336   27.0560   10.8224   4.30106478
       16.2336   29.7616   13.5280   4.35502533
       18.9392   27.0560   13.5280   4.34920831
       18.9392   29.7616   10.8224   4.35764138
       21.6448   24.3504    8.1168   4.30287074
       21.6448   24.3504   13.5280   4.34602497
       21.6448   29.7616    8.1168   4.36245809
       21.6448   27.0560   10.8224   4.35357269
       21.6448   29.7616   13.5280   4.40309364
       16.2336   24.3504   18.9392   4.34267509
       18.9392   24.3504   16.2336   4.34267509
       18.9392   24.3504   21.6448   4.39389821
       16.2336   27.0560   16.2336   4.34766407
       16.2336   29.7616   18.9392   4.40098594
       18.9392   27.0560   18.9392   4.39638679
       18.9392   29.7616   16.2336   4.40098594
       16.2336   27.0560   21.6448   4.39757338
       18.9392   29.7616   21.6448   4.44711233
       21.6448   24.3504   18.9392   4.39389821
       21.6448   27.0560   16.2336   4.39757338
       21.6448   29.7616   18.9392   4.44711233
       21.6448   27.0560   21.6448   4.44445247
       16.2336   24.3504   24.3504   4.39637496
       16.2336   24.3504   29.7616   4.44877860
       18.9392   24.3504   27.0560   4.44535554
       16.2336   29.7616   24.3504   4.44877860
       18.9392   27.0560   24.3504   4.44535554
       16.2336   27.0560   27.0560   4.44794589
       16.2336   29.7616   29.7616   4.49663512
       18.9392   27.0560   29.7616   4.49416982
       18.9392   29.7616   27.0560   4.49416982
       21.6448   24.3504   24.3504   4.44352459
       21.6448   24.3504   29.7616   4.49286501
       21.6448   29.7616   24.3504   4.49286501
       21.6448   27.0560   27.0560   4.49218977
       21.6448   29.7616   29.7616   4.53899463
       24.3504    0.0000    2.7056   4.09133828
       24.3504    2.7056    0.0000   4.09133827
       24.3504    2.7056    5.4112   4.11230404
       24.3504    5.4112    2.7056   4.11230404
       27.0560    0.0000    0.0000   4.12066022
       27.0560    2.7056    2.7056   4.14281826
       29.7616    0.0000    2.7056   4.16656617
       29.7616    2.7056    0.0000   4.16656617
       27.0560    0.0000    5.4112   4.14540256
       29.7616    2.7056    5.4112   4.19516157
       27.0560    5.4112    0.0000   4.14540256
       29.7616    5.4112    2.7056   4.19516157
       27.0560    5.4112    5.4112   4.17201972
       24.3504    0.0000    8.1168   4.12039272
       24.3504    0.0000   13.5280   4.16755207
       24.3504    2.7056   10.8224   4.15344562
       24.3504    5.4112    8.1168   4.14520683
       24.3504    5.4112   13.5280   4.19576512
       27.0560    2.7056    8.1168   4.17487770
       29.7616    0.0000    8.1168   4.19886793
       27.0560    0.0000   10.8224   4.18274528
       27.0560    2.7056   13.5280   4.21934268
       29.7616    0.0000   13.5280   4.23961063
       29.7616    2.7056   10.8224   4.23271646
       29.7616    5.4112    8.1168   4.22888676
       27.0560    5.4112   10.8224   4.21173992
       29.7616    5.4112   13.5280   4.27119396
       24.3504    0.0000   18.9392   4.22351329
       24.3504    2.7056   16.2336   4.20834953
       24.3504    2.7056   21.6448   4.26705949
       24.3504    5.4112   18.9392   4.25430426
       27.0560    0.0000   16.2336   4.23014417
       27.0560    2.7056   18.9392   4.27085807
       29.7616    0.0000   18.9392   4.28603238
       29.7616    2.7056   16.2336   4.27770007
       27.0560    0.0000   21.6448   4.28184497
       29.7616    2.7056   21.6448   4.32645076
       27.0560    5.4112   16.2336   4.26124142
       29.7616    5.4112   18.9392   4.31901436
       27.0560    5.4112   21.6448   4.31462985
       24.3504    0.0000   24.3504   4.28035695
       24.3504    0.0000   29.7616   4.33465395
       24.3504    2.7056   27.0560   4.32402227
       24.3504    5.4112   24.3504   4.31307449
       24.3504    5.4112   29.7616   4.36879263
       27.0560    2.7056   24.3504   4.32402227
       29.7616    0.0000   24.3504   4.33465395
       27.0560    0.0000   27.0560   4.33368206
       27.0560    2.7056   29.7616   4.37590114
       29.7616    0.0000   29.7616   4.38314360
       29.7616    2.7056   27.0560   4.37590114
       29.7616    5.4112   24.3504   4.36879262
       27.0560    5.4112   27.0560   4.36777622
       29.7616    5.4112   29.7616   4.41820373
       24.3504    8.1168    0.0000   4.12039272
       24.3504    8.1168    5.4112   4.14520682
       24.3504   10.8224    2.7056   4.15344562
       24.3504   13.5280    0.0000   4.16755207
       24.3504   13.5280    5.4112   4.19576512
       27.0560    8.1168    2.7056   4.17487769
       29.7616    8.1168    0.0000   4.19886793
       29.7616    8.1168    5.4112   4.22888676
       27.0560   10.8224    0.0000   4.18274527
       27.0560   13.5280    2.7056   4.21934268
       29.7616   10.8224    2.7056   4.23271646
       29.7616   13.5280    0.0000   4.23961063
       27.0560   10.8224    5.4112   4.21173992
       29.7616   13.5280    5.4112   4.27119396
       24.3504    8.1168   10.8224   4.18850335
       24.3504   10.8224    8.1168   4.18850335
       24.3504   10.8224   13.5280   4.23812455
       24.3504   13.5280   10.8224   4.23812455
       27.0560    8.1168    8.1168   4.20898262
       27.0560    8.1168   13.5280   4.25455935
       29.7616    8.1168   10.8224   4.26759721
       27.0560   13.5280    8.1168   4.25455935
       29.7616   10.8224    8.1168   4.26759721
       27.0560   10.8224   10.8224   4.25215308
       27.0560   13.5280   13.5280   4.29909838
       29.7616   10.8224   13.5280   4.31013458
       29.7616   13.5280   10.8224   4.31013458
       24.3504    8.1168   16.2336   4.24397786
       24.3504    8.1168   21.6448   4.30287074
       24.3504   10.8224   18.9392   4.29481615
       24.3504   13.5280   16.2336   4.29033055
       24.3504   13.5280   21.6448   4.34602497
       27.0560    8.1168   18.9392   4.30657390
       29.7616    8.1168   16.2336   4.31327911
       29.7616    8.1168   21.6448   4.36245809
       27.0560   10.8224   16.2336   4.30106478
       27.0560   13.5280   18.9392   4.34920831
       29.7616   10.8224   18.9392   4.35764138
       29.7616   13.5280   16.2336   4.35502532
       27.0560   10.8224   21.6448   4.35357269
       29.7616   13.5280   21.6448   4.40309363
       24.3504    8.1168   27.0560   4.36005728
       24.3504   10.8224   24.3504   4.35213533
       24.3504   10.8224   29.7616   4.40701091
       24.3504   13.5280   27.0560   4.40095358
       27.0560    8.1168   24.3504   4.36005728
       27.0560    8.1168   29.7616   4.41223638
       29.7616    8.1168   27.0560   4.41223638
       27.0560   13.5280   24.3504   4.40095358
       29.7616   10.8224   24.3504   4.40701091
       27.0560   10.8224   27.0560   4.40605008
       27.0560   13.5280   29.7616   4.45190244
       29.7616   10.8224   29.7616   4.45612555
       29.7616   13.5280   27.0560   4.45190244
       24.3504   16.2336    2.7056   4.20834953
       24.3504   18.9392    0.0000   4.22351329
       24.3504   18.9392    5.4112   4.25430426
       24.3504   21.6448    2.7056   4.26705948
       27.0560   16.2336    0.0000   4.23014417
       27.0560   18.9392    2.7056   4.27085807
       29.7616   16.2336    2.7056   4.27770007
       29.7616   18.9392    0.0000   4.28603238
       27.0560   16.2336    5.4112   4.26124142
       29.7616   18.9392    5.4112   4.31901436
       27.0560   21.6448    0.0000   4.28184497
       29.7616   21.6448    2.7056   4.32645076
       27.0560   21.6448    5.4112   4.31462985
       24.3504   16.2336    8.1168   4.24397786
       24.3504   16.2336   13.5280   4.29033055
       24.3504   18.9392   10.8224   4.29481614
       24.3504   21.6448    8.1168   4.30287074
       24.3504   21.6448   13.5280   4.34602497
       27.0560   18.9392    8.1168   4.30657390
       29.7616   16.2336    8.1168   4.31327911
       27.0560   16.2336   10.8224   4.30106477
       27.0560   18.9392   13.5280   4.34920831
       29.7616   16.2336   13.5280   4.35502532
       29.7616   18.9392   10.8224   4.35764137
       29.7616   21.6448    8.1168   4.36245809
       27.0560   21.6448   10.8224   4.35357269
       29.7616   21.6448   13.5280   4.40309364
       24.3504   16.2336   18.9392   4.34267509
       24.3504   18.9392   16.2336   4.34267509
       24.3504   18.9392   21.6448   4.39389821
       24.3504   21.6448   18.9392   4.39389821
       27.0560   16.2336   16.2336   4.34766407
       27.0560   18.9392   18.9392   4.39638679
       29.7616   16.2336   18.9392   4.40098594
       29.7616   18.9392   16.2336   4.40098594
       27.0560   16.2336   21.6448   4.39757338
       29.7616   18.9392   21.6448   4.44711233
       27.0560   21.6448   16.2336   4.39757338
       29.7616   21.6448   18.9392   4.44711233
       27.0560   21.6448   21.6448   4.44445246
       24.3504   16.2336   24.3504   4.39637496
       24.3504   16.2336   29.7616   4.44877859
       24.3504   18.9392   27.0560   4.44535554
       24.3504   21.6448   24.3504   4.44352459
       24.3504   21.6448   29.7616   4.49286501
       27.0560   18.9392   24.3504   4.44535554
       29.7616   16.2336   24.3504   4.44877859
       27.0560   16.2336   27.0560   4.44794589
       27.0560   18.9392   29.7616   4.49416982
       29.7616   16.2336   29.7616   4.49663512
       29.7616   18.9392   27.0560   4.49416982
       29.7616   21.6448   24.3504   4.49286501
       27.0560   21.6448   27.0560   4.49218977
       29.7616   21.6448   29.7616   4.53899463
       24.3504   24.3504    0.0000   4.28035695
       24.3504   24.3504    5.4112   4.31307449
       24.3504   27.0560    2.7056   4.32402227
       24.3504   29.7616    0.0000   4.33465395
       24.3504   29.7616    5.4112   4.36879263
       27.0560   24.3504    2.7056   4.32402227
       29.7616   24.3504    0.0000   4.33465395
       29.7616   24.3504    5.4112   4.36879263
       27.0560   27.0560    0.0000   4.33368206
       27.0560   29.7616    2.7056   4.37590114
       29.7616   27.0560    2.7056   4.37590114
       29.7616   29.7616    0.0000   4.38314360
       27.0560   27.0560    5.4112   4.36777622
       29.7616   29.7616    5.4112   4.41820373
       24.3504   24.3504   10.8224   4.35213533
       24.3504   27.0560    8.1168   4.36005728
       24.3504   27.0560   13.5280   4.40095358
       24.3504   29.7616   10.8224   4.40701091
       27.0560   24.3504    8.1168   4.36005728
       27.0560   24.3504   13.5280   4.40095358
       29.7616   24.3504   10.8224   4.40701091
       27.0560   29.7616    8.1168   4.41223638
       29.7616   27.0560    8.1168   4.41223638
       27.0560   27.0560   10.8224   4.40605008
       27.0560   29.7616   13.5280   4.45190244
       29.7616   27.0560   13.5280   4.45190244
       29.7616   29.7616   10.8224   4.45612555
       24.3504   24.3504   16.2336   4.39637496
       24.3504   24.3504   21.6448   4.44352459
       24.3504   27.0560   18.9392   4.44535554
       24.3504   29.7616   16.2336   4.44877860
       24.3504   29.7616   21.6448   4.49286501
       27.0560   24.3504   18.9392   4.44535554
       29.7616   24.3504   16.2336   4.44877859
       29.7616   24.3504   21.6448   4.49286501
       27.0560   27.0560   16.2336   4.44794589
       27.0560   29.7616   18.9392   4.49416982
       29.7616   27.0560   18.9392   4.49416982
       29.7616   29.7616   16.2336   4.49663512
       27.0560   27.0560   21.6448   4.49218977
       29.7616   29.7616   21.6448   4.53899463
       24.3504   24.3504   27.0560   4.49150353
       24.3504   27.0560   24.3504   4.49150353
       24.3504   27.0560   29.7616   4.53797586
       24.3504   29.7616   27.0560   4.53797586
       27.0560   24.3504   24.3504   4.49150353
       27.0560   24.3504   29.7616   4.53797586
       29.7616   24.3504   27.0560   4.53797586
       27.0560   29.7616   24.3504   4.53797586
       29.7616   27.0560   24.3504   4.53797586
       27.0560   27.0560   27.0560   4.53745252
       27.0560   29.7616   29.7616   4.58235036
       29.7616   27.0560   29.7616   4.58235036
       29.7616   29.7616   27.0560   4.58235036
        4.0584    4.0584    1.3528  -2.00000000
        4.0584    1.3528    4.0584  -2.00000000
        1.3528    4.0584    4.0584  -2.00000000
        4.0584    4.0584    4.0584  -2.00000000
        1.3528    1.3528    6.7640  -2.00000000
        4.0584    4.0584    6.7640  -2.00000000
        1.3528    4.0584    6.7640  -2.00000000
        4.0584    1.3528    6.7640  -2.00000000
        1.3528    6.7640    1.3528  -2.00000000
        4.0584    6.7640    4.0584  -2.00000000
        1.3528    6.7640    4.0584  -2.00000000
        4.0584    6.7640    1.3528  -2.00000000
        1.3528    6.7640    6.7640  -2.00000000
        4.0584    6.7640    6.7640  -2.00000000
        6.7640    1.3528    1.3528  -2.00000000
        6.7640    4.0584    4.0584  -2.00000000
        6.7640    1.3528    4.0584  -2.00000000
        6.7640    4.0584    1.3528  -2.00000000
        6.7640    1.3528    6.7640  -2.00000000
        6.7640    4.0584    6.7640  -2.00000000
        6.7640    6.7640    1.3528  -2.00000000
        6.7640    6.7640    4.0584  -2.00000000
        4.0584    1.3528    9.4696  -2.00000000
        1.3528    4.0584    9.4696  -2.00000000
        1.3528    1.3528    9.4696  -2.00000000
        4.0584    9.4696    1.3528  -2.00000000
        1.3528    9.4696    4.0584  -2.00000000
        1.3528    9.4696    1.3528  -2.00000000
        9.4696    4.0584    1.3528  -2.00000000
        9.4696    1.3528    4.0584  -2.00000000
        9.4696    1.3528    1.3528  -2.00000000
        6.7640    6.7640    6.7640  -2.03084205
        4.0584    4.0584    9.4696  -1.99605371
        1.3528    1.3528   12.1752  -2.06016437
        4.0584    4.0584   12.1752  -2.53779596
        4.0584    1.3528   14.8808  -2.17730882
        1.3528    4.0584   14.8808  -2.17730888
        1.3528    1.3528   14.8808  -2.15304008
        4.0584    4.0584   14.8808  -2.20985542
        1.3528    4.0584   12.1752  -2.09339291
        4.0584    1.3528   12.1752  -2.09339305
        4.0584    6.7640    9.4696  -2.10388340
        1.3528    6.7640    9.4696  -2.02754312
        1.3528    6.7640   12.1752  -2.53090544
        4.0584    6.7640   14.8808  -2.17601863
        1.3528    6.7640   14.8808  -2.17730290
        4.0584    6.7640   12.1752  -2.32368364
        6.7640    4.0584    9.4696  -2.10388343
        6.7640    1.3528    9.4696  -2.02754316
        6.7640    1.3528   12.1752  -2.53090537
        6.7640    4.0584   14.8808  -2.17601862
        6.7640    1.3528   14.8808  -2.17730284
        6.7640    4.0584   12.1752  -2.32368369
        6.7640    6.7640    9.4696  -2.54388985
        6.7640    6.7640   12.1752  -2.26873619
        6.7640    6.7640   14.8808  -2.13458569
        1.3528    1.3528   17.5864  -2.05604881
        4.0584    4.0584   17.5864  -2.06783764
        4.0584    1.3528   20.2920  -1.98403111
        1.3528    4.0584   20.2920  -1.98403112
        1.3528    1.3528   20.2920  -1.98658567
        4.0584    4.0584   20.2920  -1.97906444
        1.3528    4.0584   17.5864  -2.06424048
        4.0584    1.3528   17.5864  -2.06424046
        1.3528    1.3528   22.9976  -1.93256074
        4.0584    4.0584   22.9976  -1.91509880
        1.3528    4.0584   22.9976  -1.92442989
        4.0584    1.3528   22.9976  -1.92442988
        1.3528    6.7640   17.5864  -2.05188759
        4.0584    6.7640   20.2920  -1.96262644
        1.3528    6.7640   20.2920  -1.97031922
        4.0584    6.7640   17.5864  -2.04860297
        1.3528    6.7640   22.9976  -1.90982420
        4.0584    6.7640   22.9976  -1.89912593
        6.7640    1.3528   17.5864  -2.05188756
        6.7640    4.0584   20.2920  -1.96262643
        6.7640    1.3528   20.2920  -1.97031921
        6.7640    4.0584   17.5864  -2.04860296
        6.7640    1.3528   22.9976  -1.90982420
        6.7640    4.0584   22.9976  -1.89912593
        6.7640    6.7640   17.5864  -2.02570400
        6.7640    6.7640   20.2920  -1.94434279
        6.7640    6.7640   22.9976  -1.88208737
        4.0584    1.3528   25.7032  -1.87709900
        1.3528    4.0584   25.7032  -1.87709900
        1.3528    1.3528   25.7032  -1.88844384
        4.0584    4.0584   25.7032  -1.86510655
        1.3528    1.3528   28.4088  -1.85086846
        4.0584    4.0584   28.4088  -1.82374695
        4.0584    1.3528   31.1144  -1.80301404
        1.3528    4.0584   31.1144  -1.80301404
        1.3528    1.3528   31.1144  -1.81774785
        4.0584    4.0584   31.1144  -1.78804634
        1.3528    4.0584   28.4088  -1.83749643
        4.0584    1.3528   28.4088  -1.83749643
        4.0584    6.7640   25.7032  -1.84895549
        1.3528    6.7640   25.7032  -1.86171508
        1.3528    6.7640   28.4088  -1.82146163
        4.0584    6.7640   31.1144  -1.77118640
        1.3528    6.7640   31.1144  -1.78644874
        4.0584    6.7640   28.4088  -1.80724930
        6.7640    4.0584   25.7032  -1.84895549
        6.7640    1.3528   25.7032  -1.86171508
        6.7640    1.3528   28.4088  -1.82146163
        6.7640    4.0584   31.1144  -1.77118640
        6.7640    1.3528   31.1144  -1.78644874
        6.7640    4.0584   28.4088  -1.80724930
        6.7640    6.7640   25.7032  -1.83214639
        6.7640    6.7640   28.4088  -1.79032661
        6.7640    6.7640   31.1144  -1.75404188
        4.0584    9.4696    4.0584  -1.99605371
        4.0584    9.4696    6.7640  -2.10388341
        1.3528    9.4696    6.7640  -2.02754312
        1.3528   12.1752    1.3528  -2.06016422
        4.0584   14.8808    1.3528  -2.17730888
        4.0584   12.1752    4.0584  -2.53779596
        1.3528   14.8808    4.0584  -2.17730887
        1.3528   12.1752    4.0584  -2.09339288
        4.0584   14.8808    4.0584  -2.20985541
        1.3528   14.8808    1.3528  -2.15304017
        4.0584   12.1752    1.3528  -2.09339286
        1.3528   12.1752    6.7640  -2.53090540
        4.0584   14.8808    6.7640  -2.17601862
        1.3528   14.8808    6.7640  -2.17730289
        4.0584   12.1752    6.7640  -2.32368360
        6.7640    9.4696    4.0584  -2.10388343
        6.7640    9.4696    1.3528  -2.02754313
        6.7640    9.4696    6.7640  -2.54388992
        6.7640   12.1752    1.3528  -2.53090529
        6.7640   14.8808    4.0584  -2.17601861
        6.7640   12.1752    4.0584  -2.32368358
        6.7640   14.8808    1.3528  -2.17730287
        6.7640   12.1752    6.7640  -2.26873616
        6.7640   14.8808    6.7640  -2.13458568
        1.3528    9.4696    9.4696  -2.46142465
        4.0584    9.4696    9.4696  -2.60759687
        4.0584    9.4696   12.1752  -2.23362099
        1.3528    9.4696   14.8808  -2.11165474
        4.0584    9.4696   14.8808  -2.10834129
        1.3528    9.4696   12.1752  -2.21286258
        4.0584   12.1752    9.4696  -2.23362098
        1.3528   14.8808    9.4696  -2.11165474
        1.3528   12.1752    9.4696  -2.21286259
        4.0584   14.8808    9.4696  -2.10834128
        1.3528   12.1752   12.1752  -2.12625952
        4.0584   14.8808   12.1752  -2.04041054
        4.0584   12.1752   14.8808  -2.04041054
        1.3528   14.8808   14.8808  -1.98416851
        1.3528   12.1752   14.8808  -2.04539365
        4.0584   14.8808   14.8808  -1.97560742
        1.3528   14.8808   12.1752  -2.04539365
        4.0584   12.1752   12.1752  -2.13292550
        6.7640    9.4696    9.4696  -2.35217804
        6.7640    9.4696   14.8808  -2.07951242
        6.7640    9.4696   12.1752  -2.19813361
        6.7640   14.8808    9.4696  -2.07951242
        6.7640   12.1752    9.4696  -2.19813360
        6.7640   12.1752   12.1752  -2.10371857
        6.7640   14.8808   14.8808  -1.95478870
        6.7640   12.1752   14.8808  -2.01702014
        6.7640   14.8808   12.1752  -2.01702013
        4.0584    9.4696   17.5864  -2.01068555
        1.3528    9.4696   20.2920  -1.94549741
        4.0584    9.4696   20.2920  -1.93563824
        1.3528    9.4696   17.5864  -2.01780733
        4.0584    9.4696   22.9976  -1.87673186
        1.3528    9.4696   22.9976  -1.88869034
        1.3528   12.1752   17.5864  -1.97382885
        4.0584   14.8808   17.5864  -1.91691874
        4.0584   12.1752   20.2920  -1.90184596
        1.3528   14.8808   20.2920  -1.87765103
        1.3528   12.1752   20.2920  -1.91327407
        4.0584   14.8808   20.2920  -1.86496238
        1.3528   14.8808   17.5864  -1.92795134
        4.0584   12.1752   17.5864  -1.96463410
        1.3528   12.1752   22.9976  -1.86247896
        4.0584   14.8808   22.9976  -1.81924785
        1.3528   14.8808   22.9976  -1.83316375
        4.0584   12.1752   22.9976  -1.84945800
        6.7640    9.4696   20.2920  -1.91679335
        6.7640    9.4696   17.5864  -1.98863765
        6.7640    9.4696   22.9976  -1.85909387
        6.7640   12.1752   17.5864  -1.94420434
        6.7640   14.8808   20.2920  -1.84655311
        6.7640   12.1752   20.2920  -1.88314417
        6.7640   14.8808   17.5864  -1.89759777
        6.7640   12.1752   22.9976  -1.83158606
        6.7640   14.8808   22.9976  -1.80132419
        1.3528    9.4696   25.7032  -1.84219915
        4.0584    9.4696   25.7032  -1.82866902
        4.0584    9.4696   28.4088  -1.78796921
        1.3528    9.4696   31.1144  -1.76797503
        4.0584    9.4696   31.1144  -1.75238713
        1.3528    9.4696   28.4088  -1.80267331
        4.0584   12.1752   25.7032  -1.80494568
        1.3528   14.8808   25.7032  -1.79369337
        1.3528   12.1752   25.7032  -1.81918641
        4.0584   14.8808   25.7032  -1.77881869
        1.3528   12.1752   28.4088  -1.78142917
        4.0584   14.8808   28.4088  -1.74264064
        4.0584   12.1752   31.1144  -1.73181773
        1.3528   14.8808   31.1144  -1.72604394
        1.3528   12.1752   31.1144  -1.74773799
        4.0584   14.8808   31.1144  -1.70980052
        1.3528   14.8808   28.4088  -1.75827656
        4.0584   12.1752   28.4088  -1.76624376
        6.7640    9.4696   25.7032  -1.81139227
        6.7640    9.4696   31.1144  -1.73499309
        6.7640    9.4696   28.4088  -1.77070317
        6.7640   14.8808   25.7032  -1.76109291
        6.7640   12.1752   25.7032  -1.78738264
        6.7640   12.1752   28.4088  -1.74872466
        6.7640   14.8808   31.1144  -1.69203991
        6.7640   12.1752   31.1144  -1.71421920
        6.7640   14.8808   28.4088  -1.72494250
        1.3528   17.5864    1.3528  -2.05604885
        4.0584   20.2920    1.3528  -1.98403114
        4.0584   17.5864    4.0584  -2.06783766
        1.3528   20.2920    4.0584  -1.98403113
        1.3528   17.5864    4.0584  -2.06424050
        4.0584   20.2920    4.0584  -1.97906445
        1.3528   20.2920    1.3528  -1.98658569
        4.0584   17.5864    1.3528  -2.06424050
        1.3528   17.5864    6.7640  -2.05188759
        4.0584   20.2920    6.7640  -1.96262645
        1.3528   20.2920    6.7640  -1.97031923
        4.0584   17.5864    6.7640  -2.04860297
        1.3528   22.9976    1.3528  -1.93256076
        4.0584   22.9976    4.0584  -1.91509881
        1.3528   22.9976    4.0584  -1.92442990
        4.0584   22.9976    1.3528  -1.92442990
        1.3528   22.9976    6.7640  -1.90982421
        4.0584   22.9976    6.7640  -1.89912594
        6.7640   17.5864    1.3528  -2.05188758
        6.7640   20.2920    4.0584  -1.96262645
        6.7640   17.5864    4.0584  -2.04860297
        6.7640   20.2920    1.3528  -1.97031922
        6.7640   17.5864    6.7640  -2.02570400
        6.7640   20.2920    6.7640  -1.94434279
        6.7640   22.9976    1.3528  -1.90982421
        6.7640   22.9976    4.0584  -1.89912594
        6.7640   22.9976    6.7640  -1.88208738
        4.0584   17.5864    9.4696  -2.01068555
        1.3528   20.2920    9.4696  -1.94549742
        1.3528   17.5864    9.4696  -2.01780733
        4.0584   20.2920    9.4696  -1.93563825
        1.3528   17.5864   12.1752  -1.97382885
        4.0584   20.2920   12.1752  -1.90184596
        4.0584   17.5864   14.8808  -1.91691874
        1.3528   20.2920   14.8808  -1.87765103
        1.3528   17.5864   14.8808  -1.92795134
        4.0584   20.2920   14.8808  -1.86496238
        1.3528   20.2920   12.1752  -1.91327407
        4.0584   17.5864   12.1752  -1.96463410
        4.0584   22.9976    9.4696  -1.87673186
        1.3528   22.9976    9.4696  -1.88869035
        1.3528   22.9976   12.1752  -1.86247896
        4.0584   22.9976   14.8808  -1.81924785
        1.3528   22.9976   14.8808  -1.83316375
        4.0584   22.9976   12.1752  -1.84945800
        6.7640   20.2920    9.4696  -1.91679336
        6.7640   17.5864    9.4696  -1.98863765
        6.7640   17.5864   12.1752  -1.94420434
        6.7640   20.2920   14.8808  -1.84655311
        6.7640   17.5864   14.8808  -1.89759777
        6.7640   20.2920   12.1752  -1.88314417
        6.7640   22.9976    9.4696  -1.85909387
        6.7640   22.9976   12.1752  -1.83158606
        6.7640   22.9976   14.8808  -1.80132419
        1.3528   17.5864   17.5864  -1.88327708
        4.0584   20.2920   17.5864  -1.82752586
        4.0584   17.5864   20.2920  -1.82752586
        1.3528   20.2920   20.2920  -1.80563303
        1.3528   17.5864   20.2920  -1.84126602
        4.0584   20.2920   20.2920  -1.79102268
        1.3528   20.2920   17.5864  -1.84126602
        4.0584   17.5864   17.5864  -1.87072462
        1.3528   17.5864   22.9976  -1.80244487
        4.0584   20.2920   22.9976  -1.75619046
        1.3528   20.2920   22.9976  -1.77151928
        4.0584   17.5864   22.9976  -1.78776630
        1.3528   22.9976   17.5864  -1.80244487
        4.0584   22.9976   20.2920  -1.75619046
        1.3528   22.9976   20.2920  -1.77151928
        4.0584   22.9976   17.5864  -1.78776630
        1.3528   22.9976   22.9976  -1.74112643
        4.0584   22.9976   22.9976  -1.72524462
        6.7640   17.5864   17.5864  -1.85211798
        6.7640   20.2920   20.2920  -1.77303085
        6.7640   17.5864   20.2920  -1.80936644
        6.7640   20.2920   17.5864  -1.80936644
        6.7640   17.5864   22.9976  -1.76985010
        6.7640   20.2920   22.9976  -1.73828327
        6.7640   22.9976   17.5864  -1.76985010
        6.7640   22.9976   20.2920  -1.73828327
        6.7640   22.9976   22.9976  -1.70732598
        4.0584   17.5864   25.7032  -1.75131763
        1.3528   20.2920   25.7032  -1.73920547
        1.3528   17.5864   25.7032  -1.76675153
        4.0584   20.2920   25.7032  -1.72328141
        1.3528   17.5864   28.4088  -1.73383850
        4.0584   20.2920   28.4088  -1.69226649
        4.0584   17.5864   31.1144  -1.68672578
        1.3528   20.2920   31.1144  -1.67980805
        1.3528   17.5864   31.1144  -1.70327402
        4.0584   20.2920   31.1144  -1.66297793
        1.3528   20.2920   28.4088  -1.70868513
        4.0584   17.5864   28.4088  -1.71779085
        4.0584   22.9976   25.7032  -1.69530710
        1.3528   22.9976   25.7032  -1.71165843
        1.3528   22.9976   28.4088  -1.68327119
        4.0584   22.9976   31.1144  -1.63888890
        1.3528   22.9976   31.1144  -1.65597614
        4.0584   22.9976   28.4088  -1.66652156
        6.7640   20.2920   25.7032  -1.70538930
        6.7640   17.5864   25.7032  -1.73349500
        6.7640   17.5864   28.4088  -1.69996353
        6.7640   20.2920   31.1144  -1.64498318
        6.7640   17.5864   31.1144  -1.66883647
        6.7640   20.2920   28.4088  -1.67433901
        6.7640   22.9976   25.7032  -1.67735199
        6.7640   22.9976   28.4088  -1.64850868
        6.7640   22.9976   31.1144  -1.62080367
        4.0584   25.7032    1.3528  -1.87709901
        1.3528   25.7032    4.0584  -1.87709901
        4.0584   25.7032    4.0584  -1.86510656
        1.3528   25.7032    1.3528  -1.88844385
        4.0584   25.7032    6.7640  -1.84895550
        1.3528   25.7032    6.7640  -1.86171508
        1.3528   28.4088    1.3528  -1.85086846
        4.0584   31.1144    1.3528  -1.80301404
        4.0584   28.4088    4.0584  -1.82374695
        1.3528   31.1144    4.0584  -1.80301404
        1.3528   28.4088    4.0584  -1.83749643
        4.0584   31.1144    4.0584  -1.78804634
        1.3528   31.1144    1.3528  -1.81774785
        4.0584   28.4088    1.3528  -1.83749643
        1.3528   28.4088    6.7640  -1.82146164
        4.0584   31.1144    6.7640  -1.77118640
        1.3528   31.1144    6.7640  -1.78644874
        4.0584   28.4088    6.7640  -1.80724930
        6.7640   25.7032    4.0584  -1.84895550
        6.7640   25.7032    1.3528  -1.86171508
        6.7640   25.7032    6.7640  -1.83214639
        6.7640   28.4088    1.3528  -1.82146164
        6.7640   31.1144    4.0584  -1.77118640
        6.7640   28.4088    4.0584  -1.80724930
        6.7640   31.1144    1.3528  -1.78644874
        6.7640   28.4088    6.7640  -1.79032662
        6.7640   31.1144    6.7640  -1.75404188
        1.3528   25.7032    9.4696  -1.84219915
        4.0584   25.7032    9.4696  -1.82866903
        4.0584   25.7032   12.1752  -1.80494568
        1.3528   25.7032   14.8808  -1.79369337
        4.0584   25.7032   14.8808  -1.77881870
        1.3528   25.7032   12.1752  -1.81918642
        4.0584   28.4088    9.4696  -1.78796921
        1.3528   31.1144    9.4696  -1.76797503
        1.3528   28.4088    9.4696  -1.80267331
        4.0584   31.1144    9.4696  -1.75238713
        1.3528   28.4088   12.1752  -1.78142917
        4.0584   31.1144   12.1752  -1.73181773
        4.0584   28.4088   14.8808  -1.74264064
        1.3528   31.1144   14.8808  -1.72604394
        1.3528   28.4088   14.8808  -1.75827656
        4.0584   31.1144   14.8808  -1.70980052
        1.3528   31.1144   12.1752  -1.74773799
        4.0584   28.4088   12.1752  -1.76624376
        6.7640   25.7032    9.4696  -1.81139227
        6.7640   25.7032   14.8808  -1.76109291
        6.7640   25.7032   12.1752  -1.78738264
        6.7640   31.1144    9.4696  -1.73499309
        6.7640   28.4088    9.4696  -1.77070317
        6.7640   28.4088   12.1752  -1.74872466
        6.7640   31.1144   14.8808  -1.69203991
        6.7640   28.4088   14.8808  -1.72494250
        6.7640   31.1144   12.1752  -1.71421920
        4.0584   25.7032   17.5864  -1.75131763
        1.3528   25.7032   20.2920  -1.73920547
        4.0584   25.7032   20.2920  -1.72328141
        1.3528   25.7032   17.5864  -1.76675153
        4.0584   25.7032   22.9976  -1.69530710
        1.3528   25.7032   22.9976  -1.71165843
        1.3528   28.4088   17.5864  -1.73383850
        4.0584   31.1144   17.5864  -1.68672578
        4.0584   28.4088   20.2920  -1.69226649
        1.3528   31.1144   20.2920  -1.67980805
        1.3528   28.4088   20.2920  -1.70868513
        4.0584   31.1144   20.2920  -1.66297793
        1.3528   31.1144   17.5864  -1.70327402
        4.0584   28.4088   17.5864  -1.71779085
        1.3528   28.4088   22.9976  -1.68327119
        4.0584   31.1144   22.9976  -1.63888890
        1.3528   31.1144   22.9976  -1.65597614
        4.0584   28.4088   22.9976  -1.66652156
        6.7640   25.7032   20.2920  -1.70538930
        6.7640   25.7032   17.5864  -1.73349500
        6.7640   25.7032   22.9976  -1.67735199
        6.7640   28.4088   17.5864  -1.69996353
        6.7640   31.1144   20.2920  -1.64498318
        6.7640   28.4088   20.2920  -1.67433901
        6.7640   31.1144   17.5864  -1.66883647
        6.7640   28.4088   22.9976  -1.64850868
        6.7640   31.1144   22.9976  -1.62080367
        1.3528   25.7032   25.7032  -1.68449368
        4.0584   25.7032   25.7032  -1.66777155
        4.0584   25.7032   28.4088  -1.64088012
        1.3528   25.7032   31.1144  -1.63203764
        4.0584   25.7032   31.1144  -1.61471824
        1.3528   25.7032   28.4088  -1.65792293
        4.0584   28.4088   25.7032  -1.64088012
        1.3528   31.1144   25.7032  -1.63203764
        1.3528   28.4088   25.7032  -1.65792293
        4.0584   31.1144   25.7032  -1.61471823
        1.3528   28.4088   28.4088  -1.63285195
        4.0584   31.1144   28.4088  -1.59065212
        4.0584   28.4088   31.1144  -1.59065212
        1.3528   31.1144   31.1144  -1.58452552
        1.3528   28.4088   31.1144  -1.60817957
        4.0584   31.1144   31.1144  -1.56681276
        1.3528   31.1144   28.4088  -1.60817957
        4.0584   28.4088   28.4088  -1.61555092
        6.7640   25.7032   25.7032  -1.64975073
        6.7640   25.7032   31.1144  -1.59655180
        6.7640   25.7032   28.4088  -1.62278852
        6.7640   31.1144   25.7032  -1.59655180
        6.7640   28.4088   25.7032  -1.62278852
        6.7640   28.4088   28.4088  -1.59738343
        6.7640   31.1144   31.1144  -1.54850003
        6.7640   28.4088   31.1144  -1.57241041
        6.7640   31.1144   28.4088  -1.57241041
        9.4696    4.0584    4.0584  -1.99605370
        9.4696    4.0584    6.7640  -2.10388339
        9.4696    1.3528    6.7640  -2.02754316
        9.4696    6.7640    4.0584  -2.10388338
        9.4696    6.7640    1.3528  -2.02754313
        9.4696    6.7640    6.7640  -2.54388980
       12.1752    1.3528    1.3528  -2.06016439
       14.8808    4.0584    1.3528  -2.17730890
       14.8808    1.3528    4.0584  -2.17730884
       12.1752    4.0584    4.0584  -2.53779604
       12.1752    1.3528    4.0584  -2.09339308
       14.8808    4.0584    4.0584  -2.20985542
       12.1752    4.0584    1.3528  -2.09339292
       14.8808    1.3528    1.3528  -2.15304009
       12.1752    1.3528    6.7640  -2.53090532
       14.8808    4.0584    6.7640  -2.17601863
       12.1752    4.0584    6.7640  -2.32368373
       14.8808    1.3528    6.7640  -2.17730285
       12.1752    6.7640    1.3528  -2.53090529
       14.8808    6.7640    4.0584  -2.17601863
       12.1752    6.7640    4.0584  -2.32368367
       14.8808    6.7640    1.3528  -2.17730289
       12.1752    6.7640    6.7640  -2.26873620
       14.8808    6.7640    6.7640  -2.13458570
        9.4696    1.3528    9.4696  -2.46142476
        9.4696    4.0584    9.4696  -2.60759688
        9.4696    4.0584   12.1752  -2.23362100
        9.4696    1.3528   14.8808  -2.11165471
        9.4696    4.0584   14.8808  -2.10834128
        9.4696    1.3528   12.1752  -2.21286257
        9.4696    6.7640    9.4696  -2.35217803
        9.4696    6.7640   14.8808  -2.07951242
        9.4696    6.7640   12.1752  -2.19813361
       14.8808    1.3528    9.4696  -2.11165471
       12.1752    4.0584    9.4696  -2.23362100
       12.1752    1.3528    9.4696  -2.21286256
       14.8808    4.0584    9.4696  -2.10834128
       12.1752    1.3528   12.1752  -2.12625950
       14.8808    4.0584   12.1752  -2.04041053
       14.8808    1.3528   14.8808  -1.98416850
       12.1752    4.0584   14.8808  -2.04041053
       12.1752    1.3528   14.8808  -2.04539363
       14.8808    4.0584   14.8808  -1.97560742
       12.1752    4.0584   12.1752  -2.13292550
       14.8808    1.3528   12.1752  -2.04539363
       14.8808    6.7640    9.4696  -2.07951242
       12.1752    6.7640    9.4696  -2.19813361
       12.1752    6.7640   12.1752  -2.10371857
       14.8808    6.7640   14.8808  -1.95478870
       12.1752    6.7640   14.8808  -2.01702013
       14.8808    6.7640   12.1752  -2.01702013
        9.4696    4.0584   17.5864  -2.01068554
        9.4696    1.3528   20.2920  -1.94549740
        9.4696    4.0584   20.2920  -1.93563824
        9.4696    1.3528   17.5864  -2.01780730
        9.4696    4.0584   22.9976  -1.87673185
        9.4696    1.3528   22.9976  -1.88869034
        9.4696    6.7640   20.2920  -1.91679335
        9.4696    6.7640   17.5864  -1.98863765
        9.4696    6.7640   22.9976  -1.85909387
       12.1752    1.3528   17.5864  -1.97382884
       14.8808    4.0584   17.5864  -1.91691874
       14.8808    1.3528   20.2920  -1.87765102
       12.1752    4.0584   20.2920  -1.90184595
       12.1752    1.3528   20.2920  -1.91327406
       14.8808    4.0584   20.2920  -1.86496237
       12.1752    4.0584   17.5864  -1.96463409
       14.8808    1.3528   17.5864  -1.92795133
       12.1752    1.3528   22.9976  -1.86247895
       14.8808    4.0584   22.9976  -1.81924785
       12.1752    4.0584   22.9976  -1.84945799
       14.8808    1.3528   22.9976  -1.83316374
       12.1752    6.7640   17.5864  -1.94420434
       14.8808    6.7640   20.2920  -1.84655311
       12.1752    6.7640   20.2920  -1.88314417
       14.8808    6.7640   17.5864  -1.89759777
       12.1752    6.7640   22.9976  -1.83158606
       14.8808    6.7640   22.9976  -1.80132419
        9.4696    1.3528   25.7032  -1.84219914
        9.4696    4.0584   25.7032  -1.82866902
        9.4696    4.0584   28.4088  -1.78796920
        9.4696    1.3528   31.1144  -1.76797502
        9.4696    4.0584   31.1144  -1.75238714
        9.4696    1.3528   28.4088  -1.80267331
        9.4696    6.7640   25.7032  -1.81139227
        9.4696    6.7640   31.1144  -1.73499309
        9.4696    6.7640   28.4088  -1.77070317
       14.8808    1.3528   25.7032  -1.79369336
       12.1752    4.0584   25.7032  -1.80494568
       12.1752    1.3528   25.7032  -1.81918641
       14.8808    4.0584   25.7032  -1.77881869
       12.1752    1.3528   28.4088  -1.78142917
       14.8808    4.0584   28.4088  -1.74264064
       14.8808    1.3528   31.1144  -1.72604394
       12.1752    4.0584   31.1144  -1.73181773
       12.1752    1.3528   31.1144  -1.74773799
       14.8808    4.0584   31.1144  -1.70980052
       12.1752    4.0584   28.4088  -1.76624376
       14.8808    1.3528   28.4088  -1.75827656
       14.8808    6.7640   25.7032  -1.76109291
       12.1752    6.7640   25.7032  -1.78738264
       12.1752    6.7640   28.4088  -1.74872466
       14.8808    6.7640   31.1144  -1.69203991
       12.1752    6.7640   31.1144  -1.71421920
       14.8808    6.7640   28.4088  -1.72494250
        9.4696    9.4696    1.3528  -2.46142461
        9.4696    9.4696    4.0584  -2.60759694
        9.4696    9.4696    6.7640  -2.35217804
        9.4696   14.8808    1.3528  -2.11165473
        9.4696   12.1752    4.0584  -2.23362098
        9.4696   14.8808    4.0584  -2.10834127
        9.4696   12.1752    1.3528  -2.21286256
        9.4696   14.8808    6.7640  -2.07951242
        9.4696   12.1752    6.7640  -2.19813360
       14.8808    9.4696    1.3528  -2.11165473
       12.1752    9.4696    4.0584  -2.23362099
       14.8808    9.4696    4.0584  -2.10834128
       12.1752    9.4696    1.3528  -2.21286253
       14.8808    9.4696    6.7640  -2.07951242
       12.1752    9.4696    6.7640  -2.19813362
       12.1752   12.1752    1.3528  -2.12625950
       14.8808   14.8808    1.3528  -1.98416851
       14.8808   12.1752    4.0584  -2.04041053
       12.1752   14.8808    4.0584  -2.04041053
       12.1752   12.1752    4.0584  -2.13292550
       14.8808   14.8808    4.0584  -1.97560742
       12.1752   14.8808    1.3528  -2.04539364
       14.8808   12.1752    1.3528  -2.04539364
       12.1752   12.1752    6.7640  -2.10371857
       14.8808   14.8808    6.7640  -1.95478870
       12.1752   14.8808    6.7640  -2.01702013
       14.8808   12.1752    6.7640  -2.01702013
        9.4696    9.4696    9.4696  -2.22871292
        9.4696    9.4696   12.1752  -2.12767135
        9.4696    9.4696   14.8808  -2.03343517
        9.4696   12.1752    9.4696  -2.12767135
        9.4696   14.8808    9.4696  -2.03343517
        9.4696   14.8808   12.1752  -1.97903688
        9.4696   12.1752   14.8808  -1.97903688
        9.4696   14.8808   14.8808  -1.92344876
        9.4696   12.1752   12.1752  -2.05187117
       12.1752    9.4696    9.4696  -2.12767135
       14.8808    9.4696    9.4696  -2.03343517
       14.8808    9.4696   12.1752  -1.97903688
       12.1752    9.4696   14.8808  -1.97903688
       14.8808    9.4696   14.8808  -1.92344876
       12.1752    9.4696   12.1752  -2.05187117
       14.8808   12.1752    9.4696  -1.97903688
       12.1752   14.8808    9.4696  -1.97903688
       12.1752   12.1752    9.4696  -2.05187117
       14.8808   14.8808    9.4696  -1.92344876
       12.1752   12.1752   12.1752  -1.99273973
       14.8808   14.8808   12.1752  -1.88558389
       14.8808   12.1752   14.8808  -1.88558389
       12.1752   14.8808   14.8808  -1.88558389
       12.1752   12.1752   14.8808  -1.93342040
       14.8808   14.8808   14.8808  -1.84494542
       12.1752   14.8808   12.1752  -1.93342040
       14.8808   12.1752   12.1752  -1.93342040
        9.4696    9.4696   17.5864  -1.95487857
        9.4696    9.4696   20.2920  -1.89006909
        9.4696    9.4696   22.9976  -1.83617068
        9.4696   14.8808   17.5864  -1.87087033
        9.4696   12.1752   20.2920  -1.85790226
        9.4696   14.8808   20.2920  -1.82287767
        9.4696   12.1752   17.5864  -1.91418426
        9.4696   14.8808   22.9976  -1.77961374
        9.4696   12.1752   22.9976  -1.80917763
       14.8808    9.4696   17.5864  -1.87087032
       12.1752    9.4696   20.2920  -1.85790226
       14.8808    9.4696   20.2920  -1.82287767
       12.1752    9.4696   17.5864  -1.91418426
       14.8808    9.4696   22.9976  -1.77961374
       12.1752    9.4696   22.9976  -1.80917763
       12.1752   12.1752   17.5864  -1.87797410
       14.8808   14.8808   17.5864  -1.80421170
       14.8808   12.1752   20.2920  -1.79517552
       12.1752   14.8808   20.2920  -1.79517551
       12.1752   12.1752   20.2920  -1.82790330
       14.8808   14.8808   20.2920  -1.76495595
       12.1752   14.8808   17.5864  -1.83893797
       14.8808   12.1752   17.5864  -1.83893797
       12.1752   12.1752   22.9976  -1.78318555
       14.8808   14.8808   22.9976  -1.72789409
       12.1752   14.8808   22.9976  -1.75482387
       14.8808   12.1752   22.9976  -1.75482387
        9.4696    9.4696   25.7032  -1.79050346
        9.4696    9.4696   28.4088  -1.75090907
        9.4696    9.4696   31.1144  -1.71578767
        9.4696   12.1752   25.7032  -1.76662237
        9.4696   14.8808   25.7032  -1.74061379
        9.4696   14.8808   28.4088  -1.70521776
        9.4696   12.1752   31.1144  -1.69494573
        9.4696   14.8808   31.1144  -1.67276777
        9.4696   12.1752   28.4088  -1.72891224
       12.1752    9.4696   25.7032  -1.76662237
       14.8808    9.4696   25.7032  -1.74061379
       14.8808    9.4696   28.4088  -1.70521776
       12.1752    9.4696   31.1144  -1.69494573
       14.8808    9.4696   31.1144  -1.67276777
       12.1752    9.4696   28.4088  -1.72891224
       14.8808   12.1752   25.7032  -1.71778798
       12.1752   14.8808   25.7032  -1.71778798
       12.1752   12.1752   25.7032  -1.74318167
       14.8808   14.8808   25.7032  -1.69320085
       12.1752   12.1752   28.4088  -1.70709135
       14.8808   14.8808   28.4088  -1.66076105
       14.8808   12.1752   31.1144  -1.65212105
       12.1752   14.8808   31.1144  -1.65212104
       12.1752   12.1752   31.1144  -1.67415658
       14.8808   14.8808   31.1144  -1.63033129
       12.1752   14.8808   28.4088  -1.68370173
       14.8808   12.1752   28.4088  -1.68370173
        9.4696   20.2920    1.3528  -1.94549742
        9.4696   17.5864    4.0584  -2.01068555
        9.4696   20.2920    4.0584  -1.93563824
        9.4696   17.5864    1.3528  -2.01780732
        9.4696   20.2920    6.7640  -1.91679335
        9.4696   17.5864    6.7640  -1.98863765
        9.4696   22.9976    4.0584  -1.87673186
        9.4696   22.9976    1.3528  -1.88869035
        9.4696   22.9976    6.7640  -1.85909387
       12.1752   17.5864    1.3528  -1.97382884
       14.8808   20.2920    1.3528  -1.87765103
       14.8808   17.5864    4.0584  -1.91691874
       12.1752   20.2920    4.0584  -1.90184596
       12.1752   17.5864    4.0584  -1.96463409
       14.8808   20.2920    4.0584  -1.86496238
       12.1752   20.2920    1.3528  -1.91327407
       14.8808   17.5864    1.3528  -1.92795134
       12.1752   17.5864    6.7640  -1.94420434
       14.8808   20.2920    6.7640  -1.84655312
       12.1752   20.2920    6.7640  -1.88314417
       14.8808   17.5864    6.7640  -1.89759777
       12.1752   22.9976    1.3528  -1.86247896
       14.8808   22.9976    4.0584  -1.81924785
       12.1752   22.9976    4.0584  -1.84945800
       14.8808   22.9976    1.3528  -1.83316375
       12.1752   22.9976    6.7640  -1.83158606
       14.8808   22.9976    6.7640  -1.80132419
        9.4696   17.5864    9.4696  -1.95487858
        9.4696   20.2920    9.4696  -1.89006909
        9.4696   20.2920   12.1752  -1.85790226
        9.4696   17.5864   14.8808  -1.87087033
        9.4696   20.2920   14.8808  -1.82287767
        9.4696   17.5864   12.1752  -1.91418426
        9.4696   22.9976    9.4696  -1.83617068
        9.4696   22.9976   14.8808  -1.77961374
        9.4696   22.9976   12.1752  -1.80917763
       14.8808   17.5864    9.4696  -1.87087033
       12.1752   20.2920    9.4696  -1.85790227
       12.1752   17.5864    9.4696  -1.91418426
       14.8808   20.2920    9.4696  -1.82287767
       12.1752   17.5864   12.1752  -1.87797409
       14.8808   20.2920   12.1752  -1.79517552
[...]
  340       227.030859     149 0.0  0.1968   91 1.0  0.1486   48 1.0  0.1373   92 1.0  0.1244   49 1.0  0.0924
  341       227.031345      19 0.0  0.3206  171 1.0  0.2378  131 1.0  0.2247   90 1.0  0.0893   92 1.0  0.0415
  342       227.032131     131 1.0  0.2832   49 1.0  0.1813  150 0.0  0.1216   48 1.0  0.1167   91 1.0  0.0931
  343       227.032319      20 0.0  0.3327  172 1.0  0.1735  132 1.0  0.1735   92 1.0  0.1735  170 1.0  0.0461
  344       227.032500     171 1.0  0.2865   49 1.0  0.2152   91 1.0  0.1170  110 0.0  0.1159   48 1.0  0.0869
  345       227.033190      49 1.0  0.3084  171 1.0  0.2432  131 1.0  0.2135   70 0.0  0.1313   68 0.0  0.0197
  346       227.325249      23 0.0  0.3264  175 1.0  0.2473  135 1.0  0.2429   94 1.0  0.0957  134 1.0  0.0247
  347       227.325460     113 0.0  0.3189   53 1.0  0.3026  175 1.0  0.1186   94 1.0  0.1107  174 1.0  0.0532
  348       227.326154     153 0.0  0.3054   53 1.0  0.2685  135 1.0  0.1450   94 1.0  0.1247   52 1.0  0.0495
  349       227.329506      73 0.0  0.2944   52 1.0  0.2623  174 1.0  0.1521  135 1.0  0.1483   53 1.0  0.0480
  350       227.330739     134 1.0  0.2635  175 1.0  0.1568   54 1.0  0.1474   53 1.0  0.1191  174 1.0  0.1150
  351       227.331928     174 1.0  0.2661   54 1.0  0.2521   94 1.0  0.2038  112 0.0  0.0619   52 1.0  0.0557
  352       227.332074     134 1.0  0.2832   54 1.0  0.2439   94 1.0  0.1827   95 1.0  0.0659   52 1.0  0.0655
  353       227.332219      95 1.0  0.3211   22 0.0  0.3195  135 1.0  0.0822  175 1.0  0.0783  174 1.0  0.0674
  354       227.335736      72 0.0  0.2954   53 1.0  0.1618   54 1.0  0.1591  175 1.0  0.1413  135 1.0  0.1121
  355       227.337978     152 0.0  0.2480   95 1.0  0.2267   52 1.0  0.2083  135 1.0  0.1475   54 1.0  0.0729
  356       227.338654      52 1.0  0.2530  112 0.0  0.2408   95 1.0  0.2266  175 1.0  0.1717   54 1.0  0.0608
  357       227.341811      24 0.0  0.3334  174 1.0  0.2167  134 1.0  0.2167   94 1.0  0.2167  177 1.0  0.0055
  358       227.352556      55 1.0  0.3197  137 1.0  0.2607   97 1.0  0.2181  154 0.0  0.1544   96 1.0  0.0120
  359       227.354080     137 1.0  0.3250   55 1.0  0.2724   74 0.0  0.1207   75 0.0  0.0779  177 1.0  0.0677
  360       227.354926      97 1.0  0.3112   55 1.0  0.2549  115 0.0  0.1327  114 0.0  0.0903   56 1.0  0.0579
  361       227.356403      26 0.0  0.3192  177 1.0  0.2539  137 1.0  0.1812   96 1.0  0.1130  136 1.0  0.0440
  362       227.357965      27 0.0  0.3339  176 1.0  0.2179  136 1.0  0.2179   96 1.0  0.2179   95 1.0  0.0042
  363       227.358059     177 1.0  0.2838   56 1.0  0.2471  115 0.0  0.1558  114 0.0  0.1053   55 1.0  0.0549
  364       227.358861      56 1.0  0.2609  177 1.0  0.2387   75 0.0  0.2095   74 0.0  0.0721  176 1.0  0.0665
  365       227.360373      56 1.0  0.3132  155 0.0  0.2955   97 1.0  0.1074   96 1.0  0.0788  136 1.0  0.0724
  366       227.360840      25 0.0  0.3270   97 1.0  0.3000  137 1.0  0.1165  176 1.0  0.0989  136 1.0  0.0709
  367       227.361515      57 1.0  0.3179  136 1.0  0.2316   96 1.0  0.2140  154 0.0  0.1769   95 1.0  0.0144
  368       227.361622      57 1.0  0.3013   96 1.0  0.2517  176 1.0  0.2080  114 0.0  0.1374  177 1.0  0.0250
  369       227.361729      57 1.0  0.2990  136 1.0  0.2577  176 1.0  0.1942   74 0.0  0.1402  177 1.0  0.0263
 -------------------------------------------------------------------------------------------------------


      ****************************************************************************************************
      *                                                                                                  *
      *                                    Special properties section                                    *
      *                                                                                                  *
      ****************************************************************************************************


     Printing threshold changed to   1.00000000E-08 since quadrupole threshold is given 
     Quadrupole printing threshold changed to   1.00000000E-08
++ Length and velocity gauge comparison (SO states):

 --------------------------------------------------
 A comparison between the dipole oscillator strengths in 
 length and velocity gauge will be performed

     All dipole oscillator differences above the tolerance of   1.00000000E-01  will be printed 

 Due to basis set deficiency these oscillator may be problematic 

 The tolerance is defined as ABS(1-O_l/O_v) 
 O_l : dipole oscillator strength in length gauge
 O_p : dipole oscillator strength in velocity gauge
 --------------------------------------------------

 No problematic oscillator strengths above the tolerance   0.10000000000000001       have been found

--

 Electric-dipole - electric-octupole not included
++ Second-order contribution to the transition strengths (SO states):
   ------------------------------------------------------------------
        for osc. strength at least   1.00000000E-08

      From   To        Osc. strength
     -------------------------------
         1    7       2.23612777E-07
         1    9       6.33448751E-07
         1   16       4.87616480E-07
         1   17       4.79200839E-07
         1   18       4.80255140E-07
         1   20       6.60446199E-06
         1   21       4.68709291E-06
         1   22       1.09811868E-05
         1   23       1.12793845E-05
         1   24       1.16573548E-05
         1   25       1.68960196E-07
         1   26       2.75311648E-07
         1   27       1.02082214E-08
         1   28       2.57142102E-05
         1   29       2.29161849E-05
         1   30       5.81850257E-06
         1   31       5.27949109E-06
         1   32       5.34418213E-06
         1   36       4.40965488E-06
         1   37       4.13118203E-06
         1   38       4.33103960E-06
         1   39       1.58973045E-06
         1   40       2.27990678E-06
         1   48       3.70316293E-06
         1   49       3.69609184E-06
         1   50       3.68762365E-06
         1   52       3.30608269E-07
         1   53       4.11950371E-07
         1   57       4.67616114E-06
         1   58       4.69910176E-06
         1   59       4.70442034E-06
         1   63       7.42009788E-07
         1   64       6.76607426E-07
         1   65       6.70380063E-07
         1   67       8.74353877E-07
         1   68       9.08046715E-07
         1   69       9.11923480E-07
         1   70       2.97784494E-08
         1   71       3.45689718E-08
         1   72       1.34531912E-08
         1   73       4.21504609E-07
         1   77       2.49477194E-07
         1   78       1.32781775E-07
         1   83       4.41000072E-08
         1   84       4.56955135E-08
         1   85       6.34728595E-08
         1   86       6.67857490E-08
         1   87       9.26091058E-08
         1   88       8.45853681E-08
         1   90       1.94978576E-07
         1   91       2.75217504E-08
         1   92       3.74047022E-08
         1   93       2.21558708E-07
         1   94       4.07768825E-07
         1   96       4.78672560E-08
         1   97       5.22122641E-08
         1  105       8.01625380E-08
         1  111       3.77546598E-08
         1  115       1.39398887E-08
         1  116       1.61578511E-08
         1  117       1.46781175E-08
         1  118       1.26559030E-08
         1  119       2.59436993E-08
         1  120       1.65088196E-08
         1  122       1.01733843E-07
         1  127       7.16839043E-08
         1  131       1.76065521E-08
         1  132       1.83254918E-08
         1  133       5.66730575E-08
         1  134       7.13658335E-08
         1  135       7.76979306E-08
         1  136       4.37574204E-08
         1  138       2.18409141E-08
         1  139       3.47427174E-07
         1  140       4.37857579E-08
         1  141       1.43324371E-07
         1  144       2.03278212E-07
         1  145       3.02828403E-07
         1  146       6.28266521E-08
         1  147       5.25525873E-08
         1  148       4.94116256E-08
         1  150       9.41289696E-08
         1  154       8.42187260E-08
         1  266       7.99743149E-06
         1  267       7.80642509E-06
         1  268       7.88896293E-06
         1  272       2.01512968E-05
         1  273       2.02539602E-05
         1  274       9.14129936E-06
         1  275       9.06089369E-06
         1  276       8.92007998E-06
         1  282       3.71958450E-07
         1  286       4.72535141E-07
         1  287       7.10243282E-07
         1  288       6.73528857E-07
         1  289       6.78289516E-07
         1  291       7.98574725E-07
         1  292       7.96454911E-07
         1  293       7.96735354E-07
         1  294       2.34582019E-07
         1  295       2.38406067E-07
         1  296       2.39848397E-07
         1  297       4.75268934E-07
         1  298       4.80871236E-07
         1  305       3.02058609E-07
         1  306       3.02150620E-07
         1  307       3.16034219E-07
         1  319       7.28241285E-08
         1  320       7.39437498E-08
         1  321       1.08667269E-07
         1  323       3.19156924E-08
         1  324       3.13032252E-08
         1  325       4.30233243E-08
         1  329       4.83369184E-08
         1  332       6.20800861E-08
         1  333       6.22880224E-08
         1  334       6.28312610E-08
         2    7       4.54246088E-08
         2    9       6.62732345E-08
         2   20       2.32246707E-07
         2   21       1.88495978E-07
         2   22       1.15852024E-07
         2   23       1.19694641E-07
         2   24       1.24045044E-07
         2   28       4.22590097E-07
         2   29       3.59510613E-07
         2   30       9.26436213E-08
         2   31       8.93315392E-08
         2   32       8.84341420E-08
         2   36       1.14340912E-07
         2   37       1.06902981E-07
         2   38       1.11592189E-07
         2   48       3.26098018E-08
         2   49       3.23863304E-08
         2   50       3.22629888E-08
         2   52       3.38081828E-07
         2   53       3.24387132E-07
         2   57       4.35316434E-07
         2   58       4.22833391E-07
         2   59       4.21900747E-07
         2   63       5.30872779E-06
         2   64       5.22415644E-06
         2   65       5.21614087E-06
         2   67       1.23585439E-07
         2   68       1.87091492E-07
         2   69       1.97523488E-07
         2   70       2.82773638E-08
         2   71       3.06430409E-08
         2   73       4.08636719E-06
         2   76       3.82052770E-08
         2   77       2.34709352E-06
         2   78       1.13450138E-06
         2   83       2.16285728E-07
         2   90       2.62845157E-06
         2   94       4.50305817E-06
         2   99       1.74935169E-08
         2  100       1.34702594E-08
         2  105       1.28381668E-06
         2  110       2.69147816E-08
         2  111       7.00244980E-07
         2  115       3.33271144E-06
         2  116       3.92437446E-06
         2  117       4.12739439E-06
         2  118       3.56013780E-06
         2  119       7.60875063E-06
         2  120       1.31786694E-06
         2  121       2.83066010E-07
         2  122       8.12854510E-06
         2  124       3.66835091E-07
         2  125       3.74125492E-07
         2  127       4.96975661E-06
         2  128       3.63055228E-07
         2  129       3.44601325E-07
         2  131       1.47069421E-06
         2  132       1.53407180E-06
         2  133       4.32409011E-06
         2  134       3.86738799E-06
         2  135       4.16449164E-06
         2  136       1.87051758E-06
         2  138       4.70653989E-06
         2  139       3.43770653E-06
         2  140       3.92917235E-07
         2  141       1.27816230E-06
         2  142       1.89762216E-07
         2  144       1.56161618E-06
         2  145       2.32835203E-06
         2  146       2.26991605E-06
         2  147       3.18882371E-06
         2  148       3.45777749E-06
         2  149       1.55973663E-06
         2  150       1.31543676E-05
         2  151       2.03164122E-06
         2  152       3.90908262E-06
         2  154       1.33780856E-05
         2  155       5.41427872E-08
         2  157       4.68000691E-08
         2  158       7.75404629E-07
         2  159       5.72498257E-07
         2  162       1.11241557E-07
         2  164       1.28455168E-06
         2  165       5.55030696E-07
         2  166       9.60613419E-07
         2  167       9.13298325E-07
         2  168       3.44634258E-08
         2  169       1.90777244E-07
         2  266       1.65256804E-07
         2  267       1.61613536E-07
         2  268       1.63521861E-07
         2  272       3.99583743E-07
         2  273       3.97070679E-07
         2  274       7.99345343E-08
         2  275       7.85240344E-08
         2  276       7.68089777E-08
         2  294       4.26793346E-06
         2  295       4.22038783E-06
         2  296       4.23434679E-06
         2  297       8.77954078E-06
         2  298       8.93886421E-06
         2  299       1.09893724E-07
         2  300       1.15886488E-07
         2  305       3.33023649E-07
         2  306       3.34705457E-07
         2  307       3.92751004E-07
         2  311       5.26595953E-08
         2  312       4.55373519E-08
         2  313       6.10172450E-08
         2  314       9.69701908E-08
         2  315       1.13413523E-07
         2  316       1.26614070E-07
         2  317       1.71005444E-07
         2  319       6.89485055E-06
         2  320       7.08577798E-06
         2  321       1.14295067E-05
         2  322       1.16125529E-07
         2  323       4.76305926E-06
         2  324       4.54423430E-06
         2  325       8.29970334E-06
         2  326       1.03033700E-08
         2  327       5.76403013E-08
         2  328       9.15422858E-08
         2  329       9.25979877E-06
         2  330       1.47527826E-06
         2  332       2.17472814E-07
         2  333       2.13736415E-07
         2  334       5.58364876E-07
         2  335       2.61941899E-06
         2  336       1.19816299E-06
         2  337       4.69618302E-08
         2  338       1.81908260E-08
         2  339       1.09069609E-07
         2  340       9.70974922E-07
         2  341       3.45835908E-06
         2  342       3.52968707E-07
         2  344       2.61050000E-07
         3  171       3.46420182E-07
         3  172       5.11824197E-07
         3  173       1.59241701E-05
         3  174       3.25704961E-08
         3  175       2.95373196E-08
         3  177       3.46471211E-06
         3  178       3.77151716E-08
         3  179       9.75007525E-08
         3  181       7.86993753E-08
         3  182       2.66511829E-06
         3  183       2.77769916E-06
         3  184       2.93632762E-06
         3  186       4.00666410E-06
         3  187       6.92844560E-06
         3  188       6.58354514E-06
         3  189       7.25503158E-06
         3  190       1.47281966E-05
         3  192       3.58216178E-08
         3  193       3.33382252E-08
         3  194       1.07958978E-06
         3  195       2.74197796E-06
         3  196       7.95606477E-06
         3  197       1.51897552E-05
         3  198       1.00501344E-05
         3  199       8.54543371E-06
         3  201       1.67014413E-07
         3  202       1.25245174E-06
         3  203       2.77029020E-06
         3  204       1.59413696E-07
         3  205       4.58766499E-08
         3  207       1.37113165E-05
         3  209       1.63137380E-08
         3  210       8.56467844E-08
         3  211       6.35458275E-08
         3  214       4.30396105E-06
         3  215       4.34016888E-06
         3  216       4.41225870E-06
         3  291       2.29740388E-08
         3  292       2.29677252E-08
         3  293       2.29676394E-08
         3  332       1.16505738E-07
         3  333       1.17093650E-07
         3  334       1.08785986E-07
         3  346       1.75117859E-05
         3  347       7.53347010E-06
         3  348       7.09836704E-06
         3  349       7.06458666E-06
         3  350       6.22561917E-07
         3  351       1.34262740E-07
         3  352       2.31254218E-07
         3  353       1.85323669E-05
         3  354       5.62695523E-08
         3  355       2.34245698E-07
         3  356       1.14194497E-07
         3  358       5.59600952E-06
         3  359       4.33700939E-06
         3  360       3.03170094E-06
         3  361       2.57316396E-06
         3  363       3.33308605E-06
         3  364       2.17901333E-06
         3  365       4.04634917E-08
         3  366       3.56597950E-06
         3  367       3.62482138E-06
         3  368       2.67807539E-06
         3  369       2.56238271E-06
     -------------------------------
--

++ I/O STATISTICS
 
  I. General I/O information
  - - - - - - - - - - - - - - - - - - - - - - - - - - - - - - - - - - - - - - - - - - -
  Unit  Name          Flsize      Write/Read            MBytes           Write/Read
                      (MBytes)       Calls              In/Out           Time, sec.
  - - - - - - - - - - - - - - - - - - - - - - - - - - - - - - - - - - - - - - - - - - -
   1  RUNFILE          15.19 .     434/   72080 .     10.1/    522.5 .       0/       0
   2  ANNI              0.00 .       0/       0 .      0.0/      0.0 .       0/       0
   3  ONEINT            3.49 .       0/ 1172466 .      0.0/ 729508.8 .       0/      92
   4  JOB001            2.26 .       0/     132 .      0.0/      2.4 .       0/       0
   5  JOB002            8.00 .       0/     552 .      0.0/      2.5 .       0/       0
   6  JOB003            9.64 .       0/     672 .      0.0/      2.5 .       0/       0
   7  JOB004            6.36 .       0/     432 .      0.0/      2.4 .       0/       0
   8  JOB005            7.45 .       0/     512 .      0.0/      2.4 .       0/       0
   9  JOB006            6.36 .       0/     432 .      0.0/      2.4 .       0/       0
  10  JOB007            7.45 .       0/     512 .      0.0/      2.4 .       0/       0
  11  JOB008            6.36 .       0/     432 .      0.0/      2.4 .       0/       0
  12  JOB009            7.45 .       0/     512 .      0.0/      2.4 .       0/       0
  - - - - - - - - - - - - - - - - - - - - - - - - - - - - - - - - - - - - - - - - - - -
   *  TOTAL            79.99 .     434/ 1248734 .     10.1/ 730053.2 .       0/      92
  - - - - - - - - - - - - - - - - - - - - - - - - - - - - - - - - - - - - - - - - - - -
 
  II. I/O Access Patterns
  - - - - - - - - - - - - - - - - - - - -
  Unit  Name               % of random
                         Write/Read calls
  - - - - - - - - - - - - - - - - - - - -
   1  RUNFILE             28.6/  11.1
   2  ANNI                 0.0/   0.0
   3  ONEINT               0.0/  51.8
   4  JOB001               0.0/  68.2
   5  JOB002               0.0/  54.3
   6  JOB003               0.0/  53.6
   7  JOB004               0.0/  55.6
   8  JOB005               0.0/  54.7
   9  JOB006               0.0/  55.6
  10  JOB007               0.0/  54.7
  11  JOB008               0.0/  55.6
  12  JOB009               0.0/  54.7
  - - - - - - - - - - - - - - - - - - - -
--
--- Stop Module: rassi at Tue Jul 29 22:28:41 2025 /rc=_RC_ALL_IS_WELL_ ---
*** files: CeO2_SI.rassi.h5 xmldump
    saved to directory /home/esrf/sizhang1/Data/CeO2/XAS/Formal/Quadrupole/PT2SI
--- Module rassi spent 4 minutes 57 seconds ---

.##################.
.# Happy landing! #.
.##################.

    Timing: Wall=419.60 User=153.31 System=98.51
*********************************************************
*** WorkDir at /tmp/sizhang1/25925999/CeO2_SI removed ***
*********************************************************

real	7m2.850s
user	2m36.849s
sys	1m39.155s
